LIGGGHTS (Version LIGGGHTS-PUBLIC 3.7.0, compiled 2017-07-25-17:37:11 by dvan, git commit c449f30b63c5eec5c8053a67dccd892fe2c5cef2)
   ### Initialization
   atom_style	granular 	# atoms will have coordinates, velocities, atom IDs, types, and diameter, mass, angular velocity
   boundary		p f f 		# periodic in x, fixed in y and z
   newton		off 		# if two particles on different processors, results are not communicated
   atom_modify	map array 	# processors store lookup table of length equal to number of particles
   communicate	single vel yes	# set inter-processor communication
   units		si			# use SI units

   ### Region
   region		reg block 0.0 0.02 0.0 0.04 -0.00065 0.00065  units box	# ID style xlo xhi ylo yhi zlo zhi keyword arg (region ID=reg, units defined by the units command)
   read_restart	restart/file400700000.restart	#TO-DO: read restart file corresponding to first timestep in backward shear
  orthogonal box = (0 0 -0.00065) to (0.02 0.04 0.00065)
  1 by 4 by 1 MPI processor grid
  400 atoms
   neighbor		0.002 bin	# extra_distance_beyond_force_cutoff algorithm_used_to_build_the_neighbor_list
   neigh_modify	delay 0		# delay 0 step since last build

   ### Material properties
   fix			m1 all property/global youngsModulus peratomtype   5.e6				# ID group_ID atom_or_global valid_C++_string style args (fix ID=m1, global)
   fix			m2 all property/global poissonsRatio peratomtype   0.15				# ID group_ID atom_or_global valid_C++_string style args (fix ID=m2, global)
   fix			m3 all property/global coefficientRestitution peratomtypepair 1 0.7	# ID group_ID atom_or_global valid_C++_string style args (fix ID=m3, global)
   fix			m4 all property/global coefficientFriction peratomtypepair 1 0.5	# ID group_ID atom_or_global valid_C++_string style args (fix ID=m4, global)

   ### Contact model
   pair_style	gran model hertz tangential history	# contact model
   pair_coeff	* *			# default
   timestep		0.000001	# timestep is 1 microsec
   fix			1 all nve/sphere	# constant no of particles n; volume v, energy e are regulated; total energy is conserved; temperature t, pressure p are unregulated

   ### Walls
   fix			bottom all wall/gran model hertz tangential history primitive type 1 yplane 0	# bound the simulation domain of the granular system with a frictional wall
Resetting global state of Fix history_bottom Style property/atom from restart file info
Resetting per-atom state of Fix history_bottom Style property/atom from restart file info

   ### Computes
   compute		ymax all reduce max y	# ID group_ID reduce which_attribute arg (take vector and pick out the maximum y as scalar, ID=ymax)
   compute		11 all stress/atom pair	# ID group_ID stress/atom arg
   compute		1 all erotate/sphere	# ID group_ID erotate/sphere (compute total rotational KE)

   fix			ts all check/timestep/gran 1000 0.1 0.1	# ID group_ID check/timestep/gran nevery fraction_r fraction_h (estimate Rayleigh-Hertz time every nevery timesteps)
   thermo_style	custom step atoms ke c_ymax	# print thermo info: timestep, no of atoms, ke, 'compute ymax' to screen and log file
   thermo		10000							# output thermo info every 1 timestep
   thermo_modify	lost ignore norm no		# ignore lost atoms, don't normalize various thermo info by no of atoms
   restart		10000 restart_back/file*.restart		# write restart files every 10000 timesteps

   ### Shearing wall
   fix			moving all wall/gran model hertz tangential history primitive type 1 yplane 0.016713 shear x -0.0005	# shear wall at y=0.016713 from mesh.vtk, shear velocity=-0.0005
Resetting global state of Fix history_moving Style property/atom from restart file info
Resetting per-atom state of Fix history_moving Style property/atom from restart file info

   fix			2D all setforce NULL NULL 0	# ID group_ID setforce fx fy fz (ID=2D, NULL means do not alter force in that dimension, zero fz every timestep)

   ### Dumps
   #dump			dump_position_and_radius all custom 10000 post/position_and_radius*.Shear id radius x y z	# dump info to .Shear
   dump			dump_full_info all custom 10000 post_back/full_info*.Shear id type radius x y z vx vy vz fx fy fz omegax omegay omegaz	# dump info to .Shear

   ### Shearing particles
   fix			2D2 all setforce NULL NULL 0	# ID group_ID setforce fx fy fz (ID=2D2, NULL means do not alter force in that dimension, zero fz every timestep)

   run			200000	# run 200000 timesteps
Resetting global state of Fix contacthistory Style contacthistory from restart file info
Resetting per-atom state of Fix contacthistory Style contacthistory from restart file info
Setting up run at Wed Nov 29 10:05:19 2017

Memory usage per processor = 8.92071 Mbytes
    Step    Atoms         KinEng           ymax 
400700000      400  4.6733359e-11    0.016368097 
400710000      400  1.0602372e-11    0.016368004 
400720000      400  3.4222678e-11    0.016367931 
400730000      400  1.7570183e-11    0.016367858 
400740000      400  8.7200623e-12    0.016367779 
400750000      400  1.1045425e-11    0.016367696 
400760000      400  1.8063583e-11    0.016367616 
400770000      400  1.9177624e-11    0.016367537 
400780000      400  1.4575228e-11    0.016367457 
400790000      400  1.2462449e-11    0.016367376 
400800000      400  1.3646161e-11    0.016367294 
400810000      400  1.5742867e-11    0.016367212 
400820000      400  1.5301435e-11    0.016367131 
400830000      400  1.3740998e-11    0.016367048 
400840000      400   1.459578e-11    0.016366965 
400850000      400  1.5318788e-11    0.016366884 
400860000      400  1.5066967e-11    0.016366803 
400870000      400  1.4588337e-11    0.016366722 
400880000      400  1.4302511e-11    0.016366637 
400890000      400  1.4343045e-11    0.016366549 
400900000      400  1.4425097e-11    0.016366462 
Loop time of 89.4019 on 4 procs for 200000 steps with 400 atoms, finish time Wed Nov 29 10:06:48 2017


Pair  time (%) = 32.3791 (36.2175)
Neigh time (%) = 0.00844556 (0.00944673)
Comm  time (%) = 2.84513 (3.1824)
Outpt time (%) = 0.0890125 (0.0995644)
Other time (%) = 54.0802 (60.4911)

Nlocal:    100 ave 238 max 0 min
Histogram: 2 0 0 0 0 0 1 0 0 1
Nghost:    80.75 ave 170 max 0 min
Histogram: 2 0 0 0 0 0 0 0 0 2
Neighs:    1771.5 ave 4189 max 0 min
Histogram: 2 0 0 0 0 0 1 0 0 1

Total # of neighbors = 7086
Ave neighs/atom = 17.715
Neighbor list builds = 20
Dangerous builds = 0

   write_restart	restart_back/shear_plasticity.restart		# write a binary file of the current state of the simulation


