LIGGGHTS (Version LIGGGHTS-PUBLIC 3.7.0, compiled 2017-07-25-17:37:11 by dvan, git commit c449f30b63c5eec5c8053a67dccd892fe2c5cef2)
   ### Initialization
   atom_style	granular 	# atoms will have coordinates, velocities, atom IDs, types, and diameter, mass, angular velocity
   boundary		p f f 		# periodic in x, fixed in y and z
   newton		off 		# if two particles on different processors, results are not communicated
   atom_modify	map array 	# processors store lookup table of length equal to number of particles
   communicate	single vel yes	# set inter-processor communication
   units		si			# use SI units

   ### Region
   region		reg block 0.0 0.02 0.0 0.04 -0.00065 0.00065  units box	# ID style xlo xhi ylo yhi zlo zhi keyword arg (region ID=reg, units defined by the units command)
   read_restart	restart/insert_and_compress.restart	# read restart file
  orthogonal box = (0 0 -0.00065) to (0.02 0.04 0.00065)
  1 by 4 by 1 MPI processor grid
  400 atoms
   neighbor		0.002 bin	# extra_distance_beyond_force_cutoff algorithm_used_to_build_the_neighbor_list
   neigh_modify	delay 0		# delay 0 step since last build

   ### Material properties
   fix			m1 all property/global youngsModulus peratomtype   5.e6				# ID group_ID atom_or_global valid_C++_string style args (fix ID=m1, global)
   fix			m2 all property/global poissonsRatio peratomtype   0.15				# ID group_ID atom_or_global valid_C++_string style args (fix ID=m2, global)
   fix			m3 all property/global coefficientRestitution peratomtypepair 1 0.5	# ID group_ID atom_or_global valid_C++_string style args (fix ID=m3, global)
   fix			m4 all property/global coefficientFriction peratomtypepair 1 0.5	# ID group_ID atom_or_global valid_C++_string style args (fix ID=m4, global)

   ### Contact model
   pair_style	gran model hertz tangential history	# contact model
   pair_coeff	* *			# default
   timestep		0.000001	# timestep is 1 microsec
   fix			1 all nve/sphere	# constant no of particles n; volume v, energy e are regulated; total energy is conserved; temperature t, pressure p are unregulated

   ### Walls
   fix			bottom all wall/gran model hertz tangential history primitive type 1 yplane 0	# bound the simulation domain of the granular system with a frictional wall
Resetting global state of Fix history_bottom Style property/atom from restart file info
Resetting per-atom state of Fix history_bottom Style property/atom from restart file info

   ### Computes
   compute		ymax all reduce max y	# ID group_ID reduce which_attribute arg (take vector and pick out the maximum y as scalar, ID=ymax)
   compute		11 all stress/atom pair	# ID group_ID stress/atom arg
   compute		1 all erotate/sphere	# ID group_ID erotate/sphere (compute total rotational KE)

   fix			ts all check/timestep/gran 1000 0.1 0.1	# ID group_ID check/timestep/gran nevery fraction_r fraction_h (estimate Rayleigh-Hertz time every nevery timesteps)
   thermo_style	custom step atoms ke c_ymax	# print thermo info: timestep, no of atoms, ke, 'compute ymax' to screen and log file
   thermo		10000						# output thermo info every 10000 timesteps
   thermo_modify	lost ignore norm no		# ignore lost atoms, don't normalize various thermo info by no of atoms
   restart		10000 restart/file*.restart	# write restart files every 10000 timesteps, toggle between them

   ### Shearing wall
   fix			moving all wall/gran model hertz tangential history primitive type 1 yplane 0.016713 shear x 0.0005	# shear wall at y=0.016713 from mesh.vtk, shear velocity=0.0005

   fix			2D all setforce NULL NULL 0	# ID group_ID setforce fx fy fz (ID=2D, NULL means do not alter force in that dimension, zero fz every timestep)

   run 			1										# run 1 timestep and then zero out velocity and angular velocity
Resetting global state of Fix contacthistory Style contacthistory from restart file info
Resetting per-atom state of Fix contacthistory Style contacthistory from restart file info
Setting up run at Thu Oct  5 14:21:29 2017

Memory usage per processor = 7.73835 Mbytes
    Step    Atoms         KinEng           ymax 
  500001      400   5.840812e-13    0.016382046 
  500002      400  1.3086652e-09    0.016382046 
Loop time of 0.00149655 on 4 procs for 1 steps with 400 atoms, finish time Thu Oct  5 14:21:29 2017


Pair  time (%) = 0.000424027 (28.3336)
Neigh time (%) = 0 (0)
Comm  time (%) = 3.66569e-05 (2.44942)
Outpt time (%) = 0.0009588 (64.0672)
Other time (%) = 7.70688e-05 (5.14975)

Nlocal:    100 ave 239 max 0 min
Histogram: 2 0 0 0 0 0 1 0 0 1
Nghost:    79.5 ave 169 max 0 min
Histogram: 2 0 0 0 0 0 0 0 1 1
Neighs:    1783 ave 4252 max 0 min
Histogram: 2 0 0 0 0 0 1 0 0 1

Total # of neighbors = 7132
Ave neighs/atom = 17.83
Neighbor list builds = 0
Dangerous builds = 0
   velocity		all set NULL NULL 0 sum no units box	# set vx vy vz to 0, sum=no means new velocity will replace the old one
   set			type 1 omegax 0 omegay 0 omegaz 0		# set omegax, omegay, omegaz of all atoms to be zero
  400 settings made for omegax
  400 settings made for omegay
  400 settings made for omegaz

   ### Dumps
   #dump			dump_position_and_radius all custom 10000 post/position_and_radius*.Shear id radius x y z	# dump info to .Shear
   dump			dump_full_info all custom 10000 post/full_info*.Shear id type radius x y z vx vy vz fx fy fz omegax omegay omegaz	# dump info to .Shear

   ### Shearing particles
   fix			2D2 all setforce NULL NULL 0	# ID group_ID setforce fx fy fz (ID=2D2, NULL means do not alter force in that dimension, zero fz every timestep)

   run			600000000	# run 600000000 timesteps
Setting up run at Thu Oct  5 14:21:29 2017

Memory usage per processor = 7.73854 Mbytes
    Step    Atoms         KinEng           ymax 
  500002      400  1.3086652e-09    0.016382046 
  510000      400  3.3837607e-09    0.016388568 
  520000      400   2.792197e-10    0.016388537 
  530000      400  1.1099537e-09    0.016388544 
  540000      400  1.3197021e-10    0.016388572 
  550000      400  2.5554724e-11    0.016388596 
  560000      400  2.0887444e-11    0.016388622 
  570000      400  7.1676338e-12    0.016388658 
  580000      400  7.8605478e-12    0.016388679 
  590000      400  1.1483009e-11    0.016388693 
  600000      400  1.5552756e-11    0.016388712 
  610000      400  1.5621845e-11    0.016388728 
  620000      400  1.2713785e-11    0.016388744 
  630000      400  1.2286837e-11    0.016388755 
  640000      400  1.3070307e-11    0.016388766 
  650000      400  1.1173218e-11    0.016388787 
  660000      400  1.1385167e-11    0.016388813 
  670000      400  1.0135352e-11    0.016388842 
  680000      400  1.0541386e-11     0.01638888 
  690000      400  9.6251511e-12    0.016388925 
  700000      400  8.5826097e-12    0.016388984 
  710000      400  7.8936055e-12    0.016389094 
  720000      400  4.8228527e-09     0.01639002 
  730000      400  2.2664867e-10    0.016389965 
  740000      400  3.6814478e-10    0.016389929 
  750000      400  2.5221253e-10    0.016389951 
  760000      400  1.3016122e-10    0.016389974 
  770000      400  5.9595452e-11    0.016390034 
  780000      400  1.9650831e-11    0.016390109 
  790000      400   2.803015e-11    0.016390187 
  800000      400  1.1083008e-11    0.016390403 
  810000      400  5.0796557e-11    0.016390531 
  820000      400  1.8406183e-11     0.01639064 
  830000      400  3.1861225e-11    0.016390727 
  840000      400  1.4054471e-11    0.016390785 
  850000      400  9.1422806e-12    0.016390893 
  860000      400  2.7460467e-11    0.016390969 
  870000      400  8.0949427e-12    0.016391045 
  880000      400  1.3010546e-11    0.016391116 
  890000      400  1.7456743e-11    0.016391179 
  900000      400  1.6436156e-11     0.01639124 
  910000      400  1.6250709e-11    0.016391305 
  920000      400  1.3762166e-11    0.016391363 
  930000      400  1.0090342e-11    0.016391418 
  940000      400  8.3875371e-12    0.016391484 
  950000      400   9.088133e-12    0.016391555 
  960000      400  7.4452362e-12    0.016391612 
  970000      400  4.5987669e-11    0.016391694 
  980000      400  3.5638231e-11    0.016391734 
  990000      400  3.0019244e-11    0.016391819 
 1000000      400  2.2802101e-11    0.016391896 
 1010000      400  2.3969547e-11    0.016391953 
 1020000      400  2.0560442e-11    0.016392016 
 1030000      400  1.6864798e-11    0.016392078 
 1040000      400  6.2052565e-12    0.016392116 
 1050000      400   2.031388e-11     0.01639218 
 1060000      400  2.5899886e-11    0.016392267 
 1070000      400  1.5194257e-11    0.016392337 
 1080000      400  1.0470873e-11    0.016392394 
 1090000      400  1.7236661e-11    0.016392403 
 1100000      400  1.8263707e-11    0.016392475 
 1110000      400  8.7233465e-12     0.01639252 
 1120000      400  9.4390826e-12    0.016392568 
 1130000      400  1.6977137e-11    0.016392599 
 1140000      400  1.0314176e-10    0.016392597 
 1150000      400  1.5884902e-10    0.016392511 
 1160000      400  4.2014228e-11    0.016392548 
 1170000      400  7.2606249e-12    0.016392535 
 1180000      400  9.1573429e-12    0.016392718 
 1190000      400  2.5716466e-11     0.01639272 
 1200000      400  1.3071826e-11    0.016392732 
 1210000      400  2.9005142e-11     0.01639289 
 1220000      400  1.9225893e-11    0.016392858 
 1230000      400  9.0206708e-12     0.01639291 
 1240000      400  2.5721515e-11    0.016393005 
 1250000      400   1.437399e-11    0.016392971 
 1260000      400  1.1652969e-11    0.016393069 
 1270000      400  1.9729651e-11    0.016393081 
 1280000      400  1.7741464e-11    0.016393041 
 1290000      400  6.2747025e-12    0.016393114 
 1300000      400  2.6549542e-11    0.016393194 
 1310000      400  1.9569737e-11    0.016393152 
 1320000      400  9.7808301e-12    0.016393153 
 1330000      400  9.4627609e-12    0.016393382 
 1340000      400  2.2969692e-11    0.016393356 
 1350000      400  6.9393652e-12    0.016393367 
 1360000      400  1.6635836e-11     0.01639347 
 1370000      400  7.2468443e-12    0.016393547 
 1380000      400  3.8071789e-12     0.01639355 
 1390000      400  1.5311869e-11    0.016393664 
 1400000      400  1.5120917e-11    0.016393747 
 1410000      400  1.4651634e-11    0.016393838 
 1420000      400  2.6472939e-12    0.016393906 
 1430000      400  1.6859858e-12    0.016393955 
 1440000      400  1.9018303e-12    0.016394001 
 1450000      400  2.1561606e-12    0.016394069 
 1460000      400  7.0968778e-12    0.016394141 
 1470000      400  1.2898057e-11    0.016394198 
 1480000      400  1.9672236e-11    0.016394257 
 1490000      400  1.2593934e-11    0.016394308 
 1500000      400  1.2437669e-11    0.016394391 
 1510000      400  1.4131197e-11    0.016394448 
 1520000      400  5.1947484e-12    0.016394535 
 1530000      400  1.5081433e-11    0.016394619 
 1540000      400  4.9087084e-12    0.016394682 
 1550000      400  1.3970855e-11    0.016394771 
 1560000      400   5.056338e-12    0.016394831 
 1570000      400  1.4566631e-11    0.016394907 
 1580000      400   6.090088e-12    0.016394981 
 1590000      400  1.1050171e-11    0.016395034 
 1600000      400  1.5674023e-11     0.01639511 
 1610000      400  5.0836247e-12    0.016395176 
 1620000      400  6.7160413e-12    0.016395235 
 1630000      400   1.134481e-11    0.016395297 
 1640000      400  1.4535154e-11    0.016395364 
 1650000      400  1.0964469e-11    0.016395429 
 1660000      400  7.8656688e-12    0.016395489 
 1670000      400   8.500044e-12    0.016395546 
 1680000      400  7.7634396e-12      0.0163956 
 1690000      400  8.6863167e-12     0.01639565 
 1700000      400  8.8095686e-12    0.016395696 
 1710000      400  9.7449084e-12    0.016395739 
 1720000      400  1.0004172e-11    0.016395781 
 1730000      400  1.0166686e-11    0.016395824 
 1740000      400  9.6644279e-12    0.016395869 
 1750000      400   8.427901e-12    0.016395915 
 1760000      400  8.2677549e-12    0.016395964 
 1770000      400    9.26185e-12    0.016396013 
 1780000      400   9.554954e-12    0.016396061 
 1790000      400  8.0830943e-12    0.016396109 
 1800000      400  8.5537254e-12    0.016396157 
 1810000      400  9.2755059e-12    0.016396203 
 1820000      400  7.9569369e-12     0.01639625 
 1830000      400  9.2303268e-12    0.016396296 
 1840000      400  7.8595523e-12    0.016396344 
 1850000      400  8.4941739e-12    0.016396392 
 1860000      400  8.3568812e-12    0.016396441 
 1870000      400   7.844425e-12    0.016396491 
 1880000      400  8.4917864e-12    0.016396544 
 1890000      400  7.5795964e-12    0.016396599 
 1900000      400  8.1280858e-12    0.016396653 
 1910000      400   7.864472e-12    0.016396706 
 1920000      400  7.8541286e-12    0.016396759 
 1930000      400  8.1527579e-12     0.01639681 
 1940000      400  7.9958368e-12     0.01639686 
 1950000      400  8.2122523e-12    0.016396909 
 1960000      400   8.247333e-12    0.016396957 
 1970000      400  7.8920484e-12    0.016397005 
 1980000      400  8.2335765e-12    0.016397053 
 1990000      400  5.7540487e-12    0.016397171 
 2000000      400  5.4437839e-12    0.016397321 
 2010000      400  7.2234358e-12    0.016397463 
 2020000      400  6.2267785e-12    0.016397606 
 2030000      400  6.2362655e-12    0.016397748 
 2040000      400  5.9736723e-12    0.016397893 
 2050000      400  6.4796692e-12    0.016398037 
 2060000      400  6.3843125e-12    0.016398183 
 2070000      400  6.7321295e-12    0.016398328 
 2080000      400  5.9428783e-12    0.016398473 
 2090000      400  6.3975548e-12    0.016398617 
 2100000      400  5.7972334e-12     0.01639876 
 2110000      400  6.0523287e-12    0.016398903 
 2120000      400  6.1665654e-12    0.016399043 
 2130000      400  6.0050915e-12    0.016399184 
 2140000      400  6.3680872e-12     0.01639932 
 2150000      400  6.1353817e-12    0.016399456 
 2160000      400  6.0520206e-12    0.016399593 
 2170000      400  6.1612495e-12    0.016399729 
 2180000      400  5.5323912e-12    0.016399871 
 2190000      400  5.3988778e-12    0.016400016 
 2200000      400  5.2339003e-12    0.016400161 
 2210000      400  5.0713051e-12    0.016400307 
 2220000      400  5.0594117e-12    0.016400453 
 2230000      400  4.8260649e-12    0.016400591 
 2240000      400  4.9075821e-12    0.016400723 
 2250000      400  4.9596894e-12    0.016400855 
 2260000      400  4.9455862e-12    0.016400986 
 2270000      400  4.8384562e-12    0.016401117 
 2280000      400  4.3347948e-12    0.016401249 
 2290000      400  2.7396227e-12    0.016401338 
 2300000      400  2.4292945e-12    0.016401357 
 2310000      400  2.7228056e-12    0.016401377 
 2320000      400  3.4868414e-12    0.016401397 
 2330000      400  3.3134586e-12    0.016401419 
 2340000      400  1.2875397e-12    0.016401451 
 2350000      400  1.0644647e-12    0.016401494 
 2360000      400  1.7462465e-12    0.016401536 
 2370000      400  1.3451079e-12    0.016401577 
 2380000      400  1.2643787e-12    0.016401624 
 2390000      400    1.34059e-12    0.016401673 
 2400000      400  1.4875424e-12     0.01640172 
 2410000      400  1.5547505e-12    0.016401756 
 2420000      400  1.6372476e-12    0.016401786 
 2430000      400  1.4723633e-12    0.016401814 
 2440000      400  1.7893122e-12    0.016401841 
 2450000      400  2.0048979e-12    0.016401865 
 2460000      400  1.7859242e-12    0.016401905 
 2470000      400  1.8307929e-12    0.016401958 
 2480000      400  2.0660305e-12     0.01640201 
 2490000      400   2.110705e-12     0.01640206 
 2500000      400  1.9685015e-12    0.016402114 
 2510000      400  2.5361779e-12    0.016402164 
 2520000      400  2.4762349e-12    0.016402208 
 2530000      400  2.5531293e-12    0.016402257 
 2540000      400    3.58585e-12    0.016402296 
 2550000      400  3.1811903e-12    0.016402327 
 2560000      400  3.6879843e-12    0.016402364 
 2570000      400   3.687517e-12    0.016402399 
 2580000      400  3.6079301e-12    0.016402433 
 2590000      400  3.8080797e-12    0.016402469 
 2600000      400  3.8187318e-12    0.016402484 
 2610000      400   4.151665e-12     0.01640247 
 2620000      400  4.6244401e-12    0.016402454 
 2630000      400  5.5044144e-12    0.016402437 
 2640000      400  5.5726993e-12    0.016402421 
 2650000      400  5.6860506e-12    0.016402403 
 2660000      400  8.5988685e-12    0.016402387 
 2670000      400  6.5580085e-12    0.016402369 
 2680000      400   7.218781e-12    0.016402352 
 2690000      400   7.127694e-12    0.016402334 
 2700000      400  6.2474088e-12    0.016402315 
 2710000      400  7.1068778e-12    0.016402296 
 2720000      400  6.7212829e-12    0.016402277 
 2730000      400   6.615144e-12    0.016402256 
 2740000      400  5.9279338e-12    0.016402235 
 2750000      400  5.6724018e-12    0.016402214 
 2760000      400  4.3835014e-12    0.016402189 
 2770000      400  3.6146854e-12    0.016402163 
 2780000      400  4.0897019e-12    0.016402136 
 2790000      400  3.8166147e-12    0.016402107 
 2800000      400  3.4208545e-12    0.016402078 
 2810000      400  3.5764127e-12    0.016402046 
 2820000      400  3.7650642e-12    0.016402013 
 2830000      400  3.4311871e-12    0.016401976 
 2840000      400  3.1338991e-12    0.016401938 
 2850000      400   2.942553e-12    0.016401895 
 2860000      400  2.7190907e-12    0.016401841 
 2870000      400  1.4833568e-12    0.016401767 
 2880000      400  1.1340167e-09    0.016403056 
 2890000      400  1.4779968e-10    0.016403112 
 2900000      400  3.6780412e-11    0.016403088 
 2910000      400  3.5514565e-11     0.01640317 
 2920000      400  3.7988819e-11    0.016403264 
 2930000      400  1.8162182e-11    0.016403385 
 2940000      400  1.1621729e-11    0.016403495 
 2950000      400  6.7297721e-12    0.016403586 
 2960000      400  1.1851656e-11     0.01640363 
 2970000      400  6.4524391e-12    0.016403656 
 2980000      400  3.0313463e-12     0.01640366 
 2990000      400  3.1452345e-12    0.016403645 
 3000000      400  4.0776499e-12    0.016403629 
 3010000      400  2.8268654e-12    0.016403611 
 3020000      400  4.2682851e-12    0.016403591 
 3030000      400  3.1206034e-12    0.016403569 
 3040000      400  3.8653041e-12    0.016403547 
 3050000      400  2.5139949e-12    0.016403523 
 3060000      400  2.5281489e-12    0.016403499 
 3070000      400  2.8181442e-12    0.016403473 
 3080000      400  2.5579332e-12    0.016403446 
 3090000      400  1.8327805e-12     0.01640342 
 3100000      400   1.051575e-12    0.016403379 
 3110000      400  1.2344521e-12    0.016403338 
 3120000      400  1.2507754e-12    0.016403297 
 3130000      400  1.2237476e-12    0.016403255 
 3140000      400   1.211777e-12    0.016403214 
 3150000      400  1.1759039e-12    0.016403176 
 3160000      400  3.3208759e-12    0.016403148 
 3170000      400  2.1482375e-12    0.016403131 
 3180000      400  1.7375341e-12    0.016403116 
 3190000      400   1.138345e-12    0.016403082 
 3200000      400  1.0030232e-12     0.01640302 
 3210000      400  9.7794108e-13    0.016402959 
 3220000      400  9.3591348e-13    0.016402896 
 3230000      400  1.0414652e-12    0.016402833 
 3240000      400  1.1208121e-12    0.016402766 
 3250000      400  8.1871899e-13    0.016402678 
 3260000      400  1.2039626e-12    0.016402592 
 3270000      400  1.4005285e-12    0.016402497 
 3280000      400  1.6140429e-12    0.016402397 
 3290000      400   1.708841e-12    0.016402292 
 3300000      400  1.2041902e-12    0.016402183 
 3310000      400  8.3151838e-13    0.016402073 
 3320000      400  7.4081682e-13    0.016401959 
 3330000      400   7.474385e-13    0.016401841 
 3340000      400  7.7248841e-13     0.01640172 
 3350000      400  8.2714646e-13    0.016401597 
 3360000      400  8.0957141e-13     0.01640147 
 3370000      400  8.0961101e-13    0.016401342 
 3380000      400  8.0331184e-13    0.016401212 
 3390000      400  8.0244575e-13    0.016401079 
 3400000      400  7.1798685e-13    0.016400945 
 3410000      400  7.0467922e-13    0.016400805 
 3420000      400  7.0256683e-13     0.01640066 
 3430000      400  6.9453565e-13    0.016400513 
 3440000      400  7.6726889e-13    0.016400364 
 3450000      400  7.7292192e-13    0.016400212 
 3460000      400  8.3604005e-13    0.016400054 
 3470000      400   8.954678e-13    0.016399889 
 3480000      400  1.4624535e-11    0.016399727 
 3490000      400  8.8346432e-12    0.016399653 
 3500000      400  1.3348706e-12    0.016399663 
 3510000      400  7.5908177e-13    0.016399643 
 3520000      400  1.3850853e-12    0.016399574 
 3530000      400  1.3428578e-12     0.01639954 
 3540000      400  2.0889152e-12    0.016399498 
 3550000      400  1.2312148e-12     0.01639945 
 3560000      400  2.0275478e-12    0.016399395 
 3570000      400  2.7927885e-12    0.016399338 
 3580000      400  2.0710809e-12    0.016399275 
 3590000      400  3.2178892e-12    0.016399206 
 3600000      400  2.9041313e-12    0.016399134 
 3610000      400  3.0917133e-12     0.01639906 
 3620000      400   3.545232e-12    0.016398986 
 3630000      400  3.3440531e-12    0.016398911 
 3640000      400  4.0475966e-12    0.016398836 
 3650000      400  3.7750374e-12    0.016398761 
 3660000      400  4.1447993e-12    0.016398684 
 3670000      400   4.185616e-12    0.016398607 
 3680000      400  4.2659555e-12     0.01639853 
 3690000      400   4.627038e-12    0.016398454 
 3700000      400  4.6215421e-12    0.016398373 
 3710000      400  4.6507894e-12    0.016398293 
 3720000      400  5.0257142e-12    0.016398211 
 3730000      400  5.0567089e-12    0.016398129 
 3740000      400   5.104546e-12    0.016398048 
 3750000      400  5.2560739e-12    0.016397968 
 3760000      400  5.4161164e-12    0.016397886 
 3770000      400   1.523316e-11     0.01639781 
 3780000      400  2.0775461e-10    0.016397222 
 3790000      400  3.4853725e-11    0.016397138 
 3800000      400  1.7105027e-11    0.016397076 
 3810000      400  2.6069771e-11    0.016397032 
 3820000      400  1.3438253e-11    0.016396994 
 3830000      400  1.3000543e-11    0.016396945 
 3840000      400  1.1950159e-11    0.016396899 
 3850000      400  8.5771677e-12    0.016396845 
 3860000      400  6.5067208e-12    0.016396793 
 3870000      400  9.2479929e-12    0.016396738 
 3880000      400   8.395237e-12    0.016396687 
 3890000      400  8.6685282e-12    0.016396632 
 3900000      400  8.9275893e-12    0.016396578 
 3910000      400  8.0837953e-12    0.016396522 
 3920000      400  9.5659067e-12    0.016396468 
 3930000      400  8.2023321e-12    0.016396414 
 3940000      400  9.5131173e-12    0.016396361 
 3950000      400  8.7802559e-12     0.01639631 
 3960000      400  8.9333981e-12    0.016396259 
 3970000      400  9.3431212e-12    0.016396209 
 3980000      400  8.5323612e-12    0.016396148 
 3990000      400  1.1519489e-11    0.016396087 
 4000000      400  9.7654257e-12    0.016396028 
 4010000      400  1.0401208e-11    0.016395969 
 4020000      400    1.11429e-11    0.016395911 
 4030000      400  9.2170586e-12    0.016395852 
 4040000      400  9.4199487e-12    0.016395793 
 4050000      400  1.0140746e-11    0.016395734 
 4060000      400  9.2680109e-12    0.016395677 
 4070000      400  9.1576661e-12    0.016395618 
 4080000      400  9.5575753e-12    0.016395561 
 4090000      400  9.2526986e-12    0.016395503 
 4100000      400  9.0044709e-12    0.016395445 
 4110000      400  9.5616243e-12    0.016395386 
 4120000      400  9.6283714e-12    0.016395328 
 4130000      400  9.6209769e-12    0.016395268 
 4140000      400  1.0017443e-11    0.016395206 
 4150000      400  9.9564661e-12    0.016395144 
 4160000      400  1.0205414e-11    0.016395082 
 4170000      400  1.0273714e-11    0.016395021 
 4180000      400  1.0386311e-11     0.01639496 
 4190000      400   1.032448e-11    0.016394897 
 4200000      400  1.0370289e-11    0.016394835 
 4210000      400  1.0244499e-11    0.016394773 
 4220000      400  1.0133283e-11    0.016394711 
 4230000      400  1.0250179e-11    0.016394648 
 4240000      400  1.0206699e-11    0.016394586 
 4250000      400  1.0167246e-11    0.016394523 
 4260000      400  1.0361077e-11    0.016394461 
 4270000      400  1.0361535e-11    0.016394398 
 4280000      400  1.0423716e-11    0.016394336 
 4290000      400  1.0454463e-11    0.016394273 
 4300000      400  1.0408399e-11     0.01639421 
 4310000      400  1.0854593e-11    0.016394147 
 4320000      400  1.0721516e-11    0.016394086 
 4330000      400  1.0548249e-11    0.016394024 
 4340000      400  1.0806892e-11    0.016393963 
 4350000      400  1.0619372e-11    0.016393901 
 4360000      400  1.0665584e-11    0.016393839 
 4370000      400  1.1125919e-11    0.016393775 
 4380000      400  1.0741381e-11    0.016393711 
 4390000      400  1.1310776e-11    0.016393647 
 4400000      400  1.1109124e-11    0.016393584 
 4410000      400  1.1261482e-11    0.016393521 
 4420000      400  1.1816914e-11    0.016393458 
 4430000      400  1.1352387e-11    0.016393394 
 4440000      400  1.1535592e-11     0.01639333 
 4450000      400  1.1758279e-11    0.016393265 
 4460000      400  1.1669078e-11      0.0163932 
 4470000      400  1.1241111e-11    0.016393132 
 4480000      400  1.1740421e-11    0.016393064 
 4490000      400  1.1546632e-11    0.016392995 
 4500000      400   1.160308e-11    0.016392926 
 4510000      400  1.1916487e-11    0.016392854 
 4520000      400  1.1775079e-11    0.016392782 
 4530000      400  1.1811266e-11     0.01639271 
 4540000      400  1.1934389e-11    0.016392639 
 4550000      400  1.1909975e-11    0.016392567 
 4560000      400  1.1952136e-11    0.016392495 
 4570000      400  1.1968219e-11    0.016392424 
 4580000      400  1.1982958e-11    0.016392357 
 4590000      400  1.1845715e-11    0.016392294 
 4600000      400  1.1755482e-11    0.016392232 
 4610000      400  1.1802964e-11     0.01639217 
 4620000      400  1.1920322e-11    0.016392108 
 4630000      400  1.1848628e-11    0.016392046 
 4640000      400   1.182107e-11    0.016391985 
 4650000      400  1.1906355e-11    0.016391925 
 4660000      400  1.1859168e-11    0.016391865 
 4670000      400  1.1887595e-11    0.016391805 
 4680000      400  1.1855706e-11    0.016391745 
 4690000      400  1.1830808e-11    0.016391685 
 4700000      400   1.195069e-11    0.016391625 
 4710000      400  1.2068741e-11    0.016391565 
 4720000      400  1.2048241e-11    0.016391506 
 4730000      400  1.2210738e-11    0.016391446 
 4740000      400  1.2104859e-11    0.016391386 
 4750000      400  1.2262396e-11    0.016391328 
 4760000      400  1.2154115e-11     0.01639127 
 4770000      400  1.2140495e-11    0.016391212 
 4780000      400  1.1977254e-11    0.016391155 
 4790000      400   1.210262e-11    0.016391098 
 4800000      400  1.1942898e-11    0.016391041 
 4810000      400  1.1935954e-11    0.016390985 
 4820000      400  1.1981322e-11     0.01639093 
 4830000      400  1.1797577e-11    0.016390877 
 4840000      400  1.1849164e-11     0.01639083 
 4850000      400  1.1867642e-11    0.016390784 
 4860000      400  1.1844582e-11    0.016390737 
 4870000      400   1.183566e-11    0.016390692 
 4880000      400  1.1916019e-11    0.016390645 
 4890000      400  1.1919523e-11    0.016390595 
 4900000      400  1.2846378e-11    0.016390541 
 4910000      400  1.2874969e-11     0.01639048 
 4920000      400  1.2400284e-11    0.016390417 
 4930000      400  1.2357718e-11    0.016390356 
 4940000      400  1.2648717e-11    0.016390296 
 4950000      400  1.3283643e-11    0.016390237 
 4960000      400   9.783838e-09    0.016390983 
 4970000      400  3.0554342e-09    0.016391144 
 4980000      400  2.5611439e-11    0.016391057 
 4990000      400  5.3986765e-10    0.016390934 
 5000000      400  1.3718672e-10    0.016390863 
 5010000      400  7.1106047e-11    0.016390842 
 5020000      400  9.2753919e-12    0.016390809 
 5030000      400  5.1546317e-11    0.016390778 
 5040000      400  1.1157868e-10    0.016390753 
 5050000      400  1.0951507e-11    0.016390726 
 5060000      400  3.4083455e-11    0.016390682 
 5070000      400   3.871395e-11    0.016390648 
 5080000      400  2.1765495e-11    0.016390613 
 5090000      400  2.6291591e-11    0.016390566 
 5100000      400  4.8364034e-11    0.016390533 
 5110000      400   1.332183e-11    0.016390492 
 5120000      400  3.8996302e-11     0.01639045 
 5130000      400  1.8461967e-11    0.016390412 
 5140000      400   4.383449e-11    0.016390387 
 5150000      400  3.3999501e-11    0.016390371 
 5160000      400  2.8616153e-11    0.016390351 
 5170000      400  3.5726108e-11    0.016390329 
 5180000      400  3.7988525e-11    0.016390312 
 5190000      400  2.6054513e-11    0.016390291 
 5200000      400  4.3434219e-11    0.016390268 
 5210000      400  4.7368285e-11    0.016390265 
 5220000      400  5.6119514e-11     0.01639027 
 5230000      400  1.0404454e-10    0.016390321 
 5240000      400  4.9641483e-12    0.016390582 
 5250000      400  8.6130976e-10    0.016390587 
 5260000      400  5.3201935e-09    0.016391079 
 5270000      400  8.0453814e-12     0.01639111 
 5280000      400   2.464769e-10    0.016390937 
 5290000      400  1.9144878e-11     0.01639089 
 5300000      400  1.0127536e-11    0.016390849 
 5310000      400  1.9282484e-11    0.016390811 
 5320000      400  2.5368958e-11    0.016390776 
 5330000      400  2.5769489e-11     0.01639074 
 5340000      400  2.5746292e-11     0.01639071 
 5350000      400   2.660032e-11    0.016390681 
 5360000      400  2.6663641e-11    0.016390654 
 5370000      400  2.5603948e-11    0.016390626 
 5380000      400  2.4795562e-11    0.016390599 
 5390000      400  2.4750364e-11    0.016390574 
 5400000      400   2.496988e-11    0.016390548 
 5410000      400  2.5088674e-11    0.016390527 
 5420000      400  3.1714779e-11    0.016390516 
 5430000      400  1.0369166e-10    0.016390519 
 5440000      400  8.6021005e-08    0.016391099 
 5450000      400  9.2535392e-09    0.016391772 
 5460000      400  1.1551744e-08    0.016392087 
 5470000      400  9.6511225e-10    0.016392013 
 5480000      400  1.1999006e-09    0.016391732 
 5490000      400  3.4920436e-10    0.016391633 
 5500000      400  2.6554704e-10    0.016391623 
 5510000      400  1.1918167e-11    0.016391524 
 5520000      400  7.6931456e-12    0.016391407 
 5530000      400  1.5829566e-11     0.01639131 
 5540000      400   1.820035e-11    0.016391224 
 5550000      400  1.7779639e-11    0.016391134 
 5560000      400  1.5661411e-11    0.016391047 
 5570000      400  1.2922655e-11    0.016390961 
 5580000      400  1.3385974e-11    0.016390882 
 5590000      400  1.5362034e-11      0.0163908 
 5600000      400  1.5039498e-11    0.016390721 
 5610000      400  1.4162535e-11     0.01639064 
 5620000      400   1.488386e-11     0.01639056 
 5630000      400  1.5082867e-11    0.016390481 
 5640000      400  1.5201709e-11    0.016390405 
 5650000      400  1.5468195e-11     0.01639033 
 5660000      400  1.5691039e-11    0.016390255 
 5670000      400   1.588242e-11    0.016390182 
 5680000      400  1.5653705e-11    0.016390107 
 5690000      400  1.6054024e-11    0.016390034 
 5700000      400  1.6217443e-11    0.016389962 
 5710000      400    1.62729e-11    0.016389893 
 5720000      400  1.6312805e-11    0.016389822 
 5730000      400   1.650144e-11    0.016389752 
 5740000      400  1.6340321e-11    0.016389684 
 5750000      400  1.6178212e-11    0.016389616 
 5760000      400  1.6456632e-11    0.016389551 
 5770000      400  1.4335877e-11    0.016389488 
 5780000      400  1.5519664e-11    0.016389428 
 5790000      400  1.6579065e-11    0.016389365 
 5800000      400  1.8116683e-11    0.016389302 
 5810000      400  1.8266709e-11    0.016389243 
 5820000      400  1.5140525e-11    0.016389181 
 5830000      400  1.5748615e-11     0.01638912 
 5840000      400  1.8653509e-11    0.016389062 
 5850000      400   1.618375e-11    0.016389002 
 5860000      400  1.4142579e-11    0.016388939 
 5870000      400  1.7247884e-11     0.01638887 
 5880000      400  1.4486417e-11    0.016388795 
 5890000      400     1.8924e-11    0.016388729 
 5900000      400  9.1509767e-12    0.016388648 
 5910000      400  2.1508585e-11    0.016388573 
 5920000      400  9.7801215e-12    0.016388497 
 5930000      400  2.3119057e-11    0.016388424 
 5940000      400  1.0430734e-11    0.016388346 
 5950000      400  2.0470753e-11    0.016388271 
 5960000      400  1.5694666e-11    0.016388192 
 5970000      400  1.3065527e-11     0.01638811 
 5980000      400  1.3325506e-11    0.016388029 
 5990000      400    1.51547e-11    0.016387948 
 6000000      400  1.4671694e-11    0.016387865 
 6010000      400  1.4180091e-11    0.016387788 
 6020000      400  1.5040037e-11     0.01638771 
 6030000      400  1.5139798e-11    0.016387632 
 6040000      400  1.4629027e-11    0.016387554 
 6050000      400  1.5033977e-11    0.016387477 
 6060000      400  1.4959184e-11      0.0163874 
 6070000      400  1.5037214e-11    0.016387325 
 6080000      400  1.5171488e-11    0.016387252 
 6090000      400  1.5039203e-11    0.016387174 
 6100000      400  1.3674555e-11    0.016387094 
 6110000      400  1.3890142e-11    0.016387025 
 6120000      400  1.4583406e-11    0.016386984 
 6130000      400  1.2957076e-11    0.016386942 
 6140000      400  1.4095452e-11    0.016386902 
 6150000      400  7.5766137e-08    0.016386574 
 6160000      400   1.137152e-08    0.016386472 
 6170000      400  2.1560361e-10    0.016386803 
 6180000      400  5.1120318e-10    0.016386407 
 6190000      400  1.0522922e-09    0.016386474 
 6200000      400  2.2692683e-10    0.016386379 
 6210000      400  4.3579654e-11    0.016386271 
 6220000      400  5.0376113e-11    0.016386222 
 6230000      400    2.79546e-11    0.016386154 
 6240000      400  1.5017979e-11    0.016386086 
 6250000      400  1.4482127e-11    0.016386035 
 6260000      400  1.8285677e-11     0.01638598 
 6270000      400   1.329866e-11    0.016385944 
 6280000      400    1.59988e-11    0.016385911 
 6290000      400  1.6818233e-11    0.016385881 
 6300000      400  1.3838314e-11    0.016385848 
 6310000      400  1.4802518e-11     0.01638581 
 6320000      400  1.5324431e-11    0.016385772 
 6330000      400  1.3238702e-11    0.016385735 
 6340000      400  1.7142667e-11    0.016385696 
 6350000      400  1.2177645e-11    0.016385656 
 6360000      400  1.4816691e-11    0.016385615 
 6370000      400  1.3342367e-11    0.016385572 
 6380000      400   1.373602e-11    0.016385521 
 6390000      400  1.3844798e-11    0.016385465 
 6400000      400  1.2207665e-11    0.016385413 
 6410000      400  1.3777893e-11    0.016385352 
 6420000      400  1.1776703e-11    0.016385287 
 6430000      400  1.3221744e-11    0.016385221 
 6440000      400  1.2055693e-11    0.016385156 
 6450000      400   1.370293e-11    0.016385094 
 6460000      400   1.204202e-11    0.016385029 
 6470000      400  1.3581177e-11    0.016384966 
 6480000      400   1.192381e-11    0.016384902 
 6490000      400  1.3050051e-11    0.016384836 
 6500000      400  1.2088842e-11    0.016384772 
 6510000      400  1.3045891e-11    0.016384706 
 6520000      400  1.2316771e-11    0.016384642 
 6530000      400  1.2965853e-11    0.016384577 
 6540000      400  1.2363243e-11    0.016384515 
 6550000      400  1.2111555e-11    0.016384454 
 6560000      400  1.0818171e-11    0.016384378 
 6570000      400  1.1249454e-11    0.016384304 
 6580000      400  1.0849685e-11    0.016384228 
 6590000      400  1.0728964e-11    0.016384152 
 6600000      400    1.07889e-11    0.016384077 
 6610000      400   1.063662e-11    0.016384001 
 6620000      400  9.9667571e-12    0.016383925 
 6630000      400  1.0997113e-11    0.016383848 
 6640000      400  1.0178821e-11    0.016383771 
 6650000      400  1.0673642e-11    0.016383692 
 6660000      400  1.0576704e-11    0.016383615 
 6670000      400  1.0377422e-11    0.016383532 
 6680000      400  1.0661066e-11     0.01638345 
 6690000      400  1.0236064e-11    0.016383366 
 6700000      400  1.0460893e-11    0.016383279 
 6710000      400  1.0300469e-11    0.016383191 
 6720000      400  1.0828834e-11    0.016383102 
 6730000      400  1.0265114e-11    0.016383014 
 6740000      400  1.0450285e-11    0.016382924 
 6750000      400  1.0292338e-11    0.016382835 
 6760000      400  1.0416843e-11    0.016382746 
 6770000      400   1.045934e-11    0.016382662 
 6780000      400  1.0329549e-11    0.016382577 
 6790000      400  1.0354989e-11    0.016382492 
 6800000      400  1.0148956e-11    0.016382406 
 6810000      400   1.068627e-11    0.016382322 
 6820000      400   1.049995e-11    0.016382241 
 6830000      400  1.0409449e-11    0.016382162 
 6840000      400  1.0326471e-11    0.016382083 
 6850000      400  1.0616808e-11    0.016382006 
 6860000      400  1.0656979e-11     0.01638193 
 6870000      400  1.0860731e-11    0.016381856 
 6880000      400  1.0768487e-11    0.016381781 
 6890000      400  1.0549026e-11    0.016381706 
 6900000      400  2.1288749e-10    0.016381676 
 6910000      400  2.0681861e-11    0.016381596 
 6920000      400  9.9767013e-12    0.016381516 
 6930000      400  1.2202079e-11    0.016381436 
 6940000      400  1.1229942e-11     0.01638135 
 6950000      400   9.084954e-12    0.016381269 
 6960000      400  8.5555792e-12    0.016381189 
 6970000      400  1.0209536e-11    0.016381106 
 6980000      400  1.0841112e-11     0.01638103 
 6990000      400  1.0564556e-11    0.016380955 
 7000000      400  1.0228908e-11    0.016380882 
 7010000      400  1.0892847e-11     0.01638081 
 7020000      400  1.0898046e-11    0.016380737 
 7030000      400  1.1120026e-11    0.016380665 
 7040000      400   1.094566e-11    0.016380594 
 7050000      400  9.5286629e-12    0.016380522 
 7060000      400  1.0024899e-11    0.016380456 
 7070000      400   1.000812e-11    0.016380388 
 7080000      400  9.3952514e-12     0.01638032 
 7090000      400  9.6966493e-12    0.016380251 
 7100000      400  1.0320372e-11    0.016380181 
 7110000      400  1.0142723e-11    0.016380111 
 7120000      400  1.0620427e-11    0.016380044 
 7130000      400  1.0857874e-11    0.016379978 
 7140000      400  1.0685571e-11    0.016379913 
 7150000      400  1.0789535e-11    0.016379847 
 7160000      400  1.0619369e-11    0.016379781 
 7170000      400  1.0908171e-11    0.016379716 
 7180000      400  1.1284938e-11    0.016379653 
 7190000      400  1.1410208e-11    0.016379586 
 7200000      400  1.1388151e-11     0.01637952 
 7210000      400  1.1347229e-11    0.016379454 
 7220000      400  1.1179583e-11    0.016379389 
 7230000      400  1.0994374e-11    0.016379322 
 7240000      400  1.0797291e-11    0.016379254 
 7250000      400  1.0959498e-11    0.016379184 
 7260000      400  1.0995411e-11    0.016379113 
 7270000      400  1.0946013e-11    0.016379041 
 7280000      400  1.0973284e-11     0.01637897 
 7290000      400  1.1060421e-11    0.016378899 
 7300000      400  1.1157506e-11    0.016378827 
 7310000      400  1.1525069e-11    0.016378755 
 7320000      400  1.1843281e-11     0.01637868 
 7330000      400  1.1613672e-11    0.016378608 
 7340000      400  1.1253028e-11    0.016378537 
 7350000      400   1.139173e-11    0.016378466 
 7360000      400  1.1815693e-11    0.016378393 
 7370000      400   1.145916e-11    0.016378322 
 7380000      400  1.1242728e-11    0.016378253 
 7390000      400  1.1045038e-11    0.016378182 
 7400000      400  1.1124308e-11    0.016378111 
 7410000      400  1.1286679e-11    0.016378037 
 7420000      400  1.1731964e-11    0.016377961 
 7430000      400  1.1645411e-11    0.016377883 
 7440000      400   1.127697e-11    0.016377827 
 7450000      400  1.1385762e-11    0.016377774 
 7460000      400   1.126295e-11    0.016377721 
 7470000      400  1.1378911e-11    0.016377669 
 7480000      400  1.1505906e-11    0.016377618 
 7490000      400  1.1256643e-11    0.016377566 
 7500000      400  1.1057606e-11    0.016377498 
 7510000      400  1.0085588e-11    0.016377419 
 7520000      400  1.0682577e-11    0.016377338 
 7530000      400  1.0197403e-11    0.016377261 
 7540000      400  1.0506988e-11    0.016377185 
 7550000      400  1.0524976e-11    0.016377117 
 7560000      400  9.5496749e-12    0.016377055 
 7570000      400  8.8820451e-12     0.01637701 
 7580000      400  9.3936691e-12    0.016376983 
 7590000      400  8.9037813e-12     0.01637697 
 7600000      400    9.36691e-12     0.01637696 
 7610000      400  9.2766895e-12    0.016376945 
 7620000      400  8.8024592e-12    0.016376932 
 7630000      400   9.351205e-12    0.016376912 
 7640000      400   8.858449e-12     0.01637689 
 7650000      400  8.8139162e-12    0.016376869 
 7660000      400  9.2284499e-12    0.016376843 
 7670000      400  8.4679325e-12    0.016376817 
 7680000      400  8.5862053e-12    0.016376778 
 7690000      400  8.8180334e-12    0.016376722 
 7700000      400  8.9596181e-12    0.016376666 
 7710000      400  9.3567503e-12    0.016376611 
 7720000      400   8.804851e-12    0.016376556 
 7730000      400  8.2422638e-12    0.016376552 
 7740000      400  8.6832877e-12    0.016376573 
 7750000      400  7.9088368e-12    0.016376598 
 7760000      400  7.5617524e-12    0.016376624 
 7770000      400  8.0797513e-12     0.01637667 
 7780000      400  8.1929678e-12    0.016376747 
 7790000      400  8.4117515e-12    0.016376822 
 7800000      400  8.1741014e-12    0.016376899 
 7810000      400   8.513066e-12    0.016376974 
 7820000      400  8.1556443e-12    0.016377052 
 7830000      400  7.7398084e-12    0.016377133 
 7840000      400  7.6475477e-12    0.016377215 
 7850000      400  7.6795425e-12    0.016377295 
 7860000      400  7.6954064e-12    0.016377373 
 7870000      400  7.9590346e-12    0.016377453 
 7880000      400   7.685491e-12    0.016377554 
 7890000      400  7.1413681e-12    0.016377654 
 7900000      400  7.4028142e-12    0.016377747 
 7910000      400  7.7761365e-12    0.016377829 
 7920000      400  8.1370423e-12    0.016377881 
 7930000      400  7.6526516e-12    0.016377917 
 7940000      400  8.3586503e-12    0.016377926 
 7950000      400    8.60255e-12     0.01637791 
 7960000      400  8.3824729e-12    0.016377899 
 7970000      400  8.0729168e-12     0.01637789 
 7980000      400  7.6571287e-12    0.016377884 
 7990000      400  7.4734922e-12    0.016377881 
 8000000      400  7.5256148e-12     0.01637788 
 8010000      400  7.7756265e-12    0.016377882 
 8020000      400  8.0858087e-12    0.016377887 
 8030000      400  7.7895955e-12    0.016377895 
 8040000      400   8.360797e-12    0.016377905 
 8050000      400  8.3706679e-12    0.016377917 
 8060000      400  8.0420129e-12     0.01637793 
 8070000      400  7.9889229e-12    0.016377946 
 8080000      400  8.0184966e-12    0.016377963 
 8090000      400  8.0161127e-12    0.016377983 
 8100000      400  8.0970976e-12    0.016378005 
 8110000      400  8.1060194e-12    0.016378028 
 8120000      400  8.1391481e-12    0.016378053 
 8130000      400  8.0709046e-12    0.016378079 
 8140000      400  6.8781656e-12    0.016378107 
 8150000      400  6.9600846e-12    0.016378162 
 8160000      400  5.4364489e-12    0.016378211 
 8170000      400  4.5543679e-12     0.01637826 
 8180000      400  5.2793563e-12    0.016378309 
 8190000      400  5.5797063e-12    0.016378364 
 8200000      400  5.4848304e-12    0.016378366 
 8210000      400  4.8501153e-12    0.016378343 
 8220000      400  7.7389896e-13    0.016378306 
 8230000      400  9.0739461e-13    0.016378269 
 8240000      400  9.9954862e-13     0.01637823 
 8250000      400  1.1100081e-12     0.01637818 
 8260000      400  1.3693492e-12    0.016378123 
 8270000      400  1.3624383e-12    0.016378067 
 8280000      400  1.8462508e-12    0.016378011 
 8290000      400  1.8692557e-12    0.016377953 
 8300000      400  2.3290116e-12     0.01637789 
 8310000      400  2.1381876e-12    0.016377823 
 8320000      400   2.416611e-12    0.016377751 
 8330000      400    2.38023e-12    0.016377673 
 8340000      400  2.4984117e-12    0.016377592 
 8350000      400  2.3859357e-12    0.016377555 
 8360000      400   2.490439e-12    0.016377524 
 8370000      400  3.0909844e-11    0.016377358 
 8380000      400  2.2489172e-08    0.016374232 
 8390000      400  2.5012215e-10    0.016374171 
 8400000      400  2.4480241e-09    0.016374322 
 8410000      400  4.7424926e-10     0.01637426 
 8420000      400  5.7760252e-11    0.016374132 
 8430000      400  1.8642953e-10    0.016374102 
 8440000      400   1.600541e-11    0.016374072 
 8450000      400  6.5764787e-12    0.016374095 
 8460000      400  2.3267634e-12    0.016374069 
 8470000      400  7.9142533e-13    0.016373995 
 8480000      400  1.1956792e-12    0.016373878 
 8490000      400  1.2704779e-12    0.016373759 
 8500000      400  1.0304332e-12    0.016373642 
 8510000      400  7.7999026e-13    0.016373504 
 8520000      400  7.7539082e-13    0.016373351 
 8530000      400  1.3481403e-12    0.016373182 
 8540000      400  1.2090343e-12    0.016373003 
 8550000      400  9.6948348e-13    0.016372822 
 8560000      400  9.3112234e-13    0.016372645 
 8570000      400  8.2494492e-13    0.016372469 
 8580000      400  3.7111389e-12    0.016372216 
 8590000      400  3.3692358e-12    0.016371942 
 8600000      400  2.9195785e-12    0.016371677 
 8610000      400  1.2567092e-12    0.016371401 
 8620000      400  2.2132317e-12     0.01637116 
 8630000      400  2.2707066e-12    0.016370932 
 8640000      400  1.4415945e-12    0.016370699 
 8650000      400  2.0509784e-12    0.016370471 
 8660000      400  1.3932995e-12     0.01637026 
 8670000      400  1.2308134e-12    0.016370054 
 8680000      400  1.2418969e-12    0.016369826 
 8690000      400  1.9782716e-12    0.016369609 
 8700000      400  5.5428498e-13    0.016369404 
 8710000      400  5.5807881e-13     0.01636925 
 8720000      400  5.1472195e-13    0.016369106 
 8730000      400  8.0728194e-13    0.016368964 
 8740000      400   9.630669e-13    0.016368817 
 8750000      400  5.7863294e-13    0.016368678 
 8760000      400  5.8649176e-13    0.016368537 
 8770000      400  5.7993937e-13    0.016368394 
 8780000      400  5.8544641e-13    0.016368247 
 8790000      400  6.5179822e-13    0.016368098 
 8800000      400  7.6255811e-13    0.016367947 
 8810000      400  8.1796725e-13    0.016367795 
 8820000      400  7.9008457e-13    0.016367642 
 8830000      400  5.6540179e-13    0.016367485 
 8840000      400  1.0204088e-12    0.016367331 
 8850000      400  7.2284809e-13    0.016367179 
 8860000      400  7.3191737e-12    0.016366996 
 8870000      400  5.1850495e-12    0.016366766 
 8880000      400  6.6179408e-13    0.016366539 
 8890000      400  1.0225663e-12    0.016366297 
 8900000      400  5.2145185e-12    0.016366046 
 8910000      400  2.6684377e-12    0.016365777 
 8920000      400  7.8185981e-12    0.016365494 
 8930000      400   7.157843e-13    0.016365172 
 8940000      400   9.714307e-13    0.016364888 
 8950000      400  8.4182909e-13    0.016364638 
 8960000      400  7.1438749e-13    0.016364373 
 8970000      400    8.61694e-13    0.016364106 
 8980000      400  1.0409313e-12    0.016363834 
 8990000      400  1.0440258e-12    0.016363551 
 9000000      400  3.5044063e-12    0.016363262 
 9010000      400   1.448659e-11    0.016362943 
 9020000      400  6.7172075e-12    0.016362617 
 9030000      400  3.1545057e-12    0.016362299 
 9040000      400  1.7326993e-12    0.016361983 
 9050000      400  1.0449125e-12    0.016361666 
 9060000      400  2.5239061e-12    0.016361348 
 9070000      400   3.225156e-12    0.016361039 
 9080000      400  4.3877541e-12    0.016360702 
 9090000      400  1.3773007e-11    0.016360436 
 9100000      400  1.3669564e-11     0.01636014 
 9110000      400  1.3058032e-11    0.016359856 
 9120000      400  1.3500183e-11    0.016359572 
 9130000      400  1.3912629e-11    0.016359287 
 9140000      400  1.2628321e-11       0.016359 
 9150000      400  1.5559371e-11    0.016358714 
 9160000      400  1.3668329e-11     0.01635843 
 9170000      400  8.1387923e-12    0.016358146 
 9180000      400  4.4429234e-12     0.01635786 
 9190000      400  1.7071881e-11    0.016357586 
 9200000      400  3.6301659e-11    0.016357328 
 9210000      400  1.2084967e-11    0.016357072 
 9220000      400   2.151375e-12      0.0163568 
 9230000      400   1.251342e-12    0.016356517 
 9240000      400  5.9915937e-12    0.016356244 
 9250000      400  5.3188845e-12    0.016355992 
 9260000      400  2.4075203e-12    0.016355737 
 9270000      400  5.1383773e-12    0.016355452 
 9280000      400  1.6078378e-12    0.016355186 
 9290000      400  5.0189636e-11    0.016354936 
 9300000      400  9.9675496e-12    0.016354604 
 9310000      400   2.474531e-12     0.01635441 
 9320000      400  1.7405319e-11    0.016354161 
 9330000      400   3.547338e-10    0.016352884 
 9340000      400  9.6329657e-12    0.016352703 
 9350000      400  7.6612279e-12    0.016352214 
 9360000      400  9.7918728e-12    0.016351658 
 9370000      400  1.7270437e-11    0.016351084 
 9380000      400  1.7679021e-11    0.016350485 
 9390000      400  1.6180032e-11     0.01634988 
 9400000      400  1.5659582e-11    0.016349212 
 9410000      400  1.3916115e-11     0.01634855 
 9420000      400  1.4907655e-11    0.016347865 
 9430000      400  7.3976891e-12    0.016347028 
 9440000      400  5.4547952e-12    0.016346342 
 9450000      400  4.6378088e-12    0.016345727 
 9460000      400  4.7262134e-12    0.016345101 
 9470000      400  4.1895212e-12    0.016344468 
 9480000      400  3.6884897e-12    0.016343815 
 9490000      400  4.6049936e-12    0.016343136 
 9500000      400   3.593663e-12    0.016342417 
 9510000      400  4.5058937e-12    0.016341641 
 9520000      400  4.8906912e-12    0.016340837 
 9530000      400  5.2919632e-12    0.016340749 
 9540000      400  5.1973223e-12    0.016340705 
 9550000      400   4.391902e-12    0.016340661 
 9560000      400  3.5634101e-12    0.016340619 
 9570000      400  2.9892226e-12    0.016340583 
 9580000      400  2.9605259e-12    0.016340509 
 9590000      400  3.0006675e-12    0.016340432 
 9600000      400  1.8769539e-08    0.016329811 
 9610000      400  4.3371424e-09    0.016330063 
 9620000      400  1.3283209e-09    0.016330063 
 9630000      400  9.9828255e-10    0.016330066 
 9640000      400  6.8254737e-11    0.016330118 
 9650000      400   1.045407e-11    0.016330186 
 9660000      400  2.8616607e-11    0.016330141 
 9670000      400  2.8838383e-11    0.016330083 
 9680000      400  2.7617585e-11    0.016330026 
 9690000      400  2.2338735e-11    0.016329962 
 9700000      400  1.2734683e-11    0.016329897 
 9710000      400  8.9377457e-12    0.016329828 
 9720000      400  3.7878512e-12    0.016329757 
 9730000      400  3.2837411e-12    0.016329684 
 9740000      400  6.3393708e-12    0.016329609 
 9750000      400  9.7047241e-12    0.016329531 
 9760000      400   1.398687e-11    0.016329451 
 9770000      400  1.3759547e-11     0.01632937 
 9780000      400  1.1553794e-11    0.016329278 
 9790000      400   3.210738e-11    0.016329173 
 9800000      400  1.9571907e-11    0.016329057 
 9810000      400   5.805386e-11      0.0163289 
 9820000      400  1.7103206e-10     0.01632862 
 9830000      400  1.3273371e-10     0.01632822 
 9840000      400  4.4609456e-10    0.016327776 
 9850000      400   6.223485e-10      0.0163273 
 9860000      400  1.7859053e-10     0.01632692 
 9870000      400  5.7223464e-11    0.016326537 
 9880000      400  2.6527572e-11    0.016326234 
 9890000      400  2.0319198e-12    0.016326269 
 9900000      400  9.8554039e-12    0.016326311 
 9910000      400   5.343953e-12    0.016326366 
 9920000      400  5.3042294e-12    0.016326419 
 9930000      400  1.9225023e-12    0.016326474 
 9940000      400  7.5067247e-13    0.016326531 
 9950000      400   9.281296e-13    0.016326584 
 9960000      400   7.728785e-13    0.016326632 
 9970000      400  1.0818738e-12    0.016326678 
 9980000      400  6.0956858e-13    0.016326724 
 9990000      400  1.0026745e-12    0.016326768 
10000000      400  8.2902005e-13    0.016326813 
10010000      400  1.2657464e-12    0.016326857 
10020000      400  6.1409606e-13      0.0163269 
10030000      400  8.0499045e-13    0.016326945 
10040000      400  8.4014321e-13    0.016326988 
10050000      400   7.677424e-13    0.016327032 
10060000      400  7.1004018e-13    0.016327075 
10070000      400  8.1751955e-13    0.016327119 
10080000      400  8.0547263e-13    0.016327162 
10090000      400   1.026303e-12    0.016327205 
10100000      400  7.5394062e-13    0.016327249 
10110000      400  9.9825005e-13    0.016327294 
10120000      400  7.4512529e-13    0.016327337 
10130000      400  9.8586867e-13    0.016327379 
10140000      400  8.1089957e-13    0.016327422 
10150000      400  9.8121457e-13    0.016327464 
10160000      400   9.001153e-13    0.016327507 
10170000      400  1.0050302e-12    0.016327549 
10180000      400  9.9298409e-13    0.016327594 
10190000      400  1.0194748e-12    0.016327638 
10200000      400  1.0133557e-12    0.016327682 
10210000      400  1.0347281e-12    0.016327726 
10220000      400  1.0536052e-12     0.01632777 
10230000      400  1.0420756e-12    0.016327813 
10240000      400   1.083921e-12    0.016327857 
10250000      400  1.0736106e-12    0.016327898 
10260000      400  1.0507986e-12    0.016327937 
10270000      400  1.0770226e-12    0.016327975 
10280000      400  1.0581195e-12    0.016328013 
10290000      400   1.091247e-12     0.01632805 
10300000      400  1.0934735e-12    0.016328087 
10310000      400  1.1117151e-12    0.016328124 
10320000      400  1.1061194e-12    0.016328161 
10330000      400  1.1234121e-12    0.016328197 
10340000      400  1.1350133e-12    0.016328233 
10350000      400   1.142844e-12    0.016328269 
10360000      400  6.3740284e-13    0.016328292 
10370000      400  1.0856407e-12    0.016328305 
10380000      400  7.4027212e-13    0.016328313 
10390000      400  1.1008377e-12    0.016328319 
10400000      400  9.5352992e-13    0.016328323 
10410000      400  1.0216259e-12    0.016328326 
10420000      400  1.1699522e-12    0.016328329 
10430000      400  1.0333156e-12     0.01632833 
10440000      400   1.229652e-12    0.016328331 
10450000      400  1.2185343e-12     0.01632833 
10460000      400  1.2685335e-12    0.016328327 
10470000      400  1.4389765e-12    0.016328322 
10480000      400  1.3652049e-12    0.016328302 
10490000      400  6.5098046e-13    0.016328262 
10500000      400  8.8615843e-13    0.016328222 
10510000      400  1.0614578e-12    0.016328182 
10520000      400  7.5666465e-13    0.016328142 
10530000      400  1.0138716e-12    0.016328102 
10540000      400  1.0090136e-12    0.016328061 
10550000      400  8.8135007e-13    0.016328021 
10560000      400  1.0265748e-12     0.01632798 
10570000      400  1.1310181e-12     0.01632793 
10580000      400  1.3302378e-12    0.016327851 
10590000      400  1.3169523e-12    0.016327759 
10600000      400  1.2953992e-12    0.016327662 
10610000      400  1.3471714e-12    0.016327563 
10620000      400   1.380147e-12    0.016327462 
10630000      400  1.5017427e-12    0.016327362 
10640000      400  1.6390038e-12    0.016327265 
10650000      400  1.6816403e-12    0.016327171 
10660000      400  1.8739853e-12    0.016327079 
10670000      400  2.0187794e-12    0.016326989 
10680000      400   2.095903e-12      0.0163269 
10690000      400  2.1553181e-12    0.016326812 
10700000      400  2.2303515e-12    0.016326725 
10710000      400  2.2983199e-12    0.016326641 
10720000      400  2.3668989e-12    0.016326558 
10730000      400  1.6357833e-12    0.016326577 
10740000      400  2.1323785e-12    0.016326701 
10750000      400  2.2055508e-12    0.016326823 
10760000      400  1.9650075e-12    0.016326942 
10770000      400   1.885745e-12    0.016327057 
10780000      400  2.0117343e-12     0.01632717 
10790000      400  2.1641461e-12    0.016327279 
10800000      400  2.1982813e-12    0.016327386 
10810000      400  2.1583392e-12    0.016327488 
10820000      400  2.1374445e-12    0.016327587 
10830000      400  2.1754236e-12    0.016327681 
10840000      400  2.2339659e-12    0.016327771 
10850000      400  2.2587596e-12    0.016327856 
10860000      400  2.2859528e-12    0.016327935 
10870000      400  2.2807259e-12    0.016328007 
10880000      400  2.2957511e-12    0.016328069 
10890000      400  2.3567749e-12    0.016328118 
10900000      400  2.4621269e-12    0.016328133 
10910000      400  2.4871456e-12    0.016328138 
10920000      400  2.4832306e-12    0.016328143 
10930000      400  2.4805761e-12    0.016328147 
10940000      400  2.5788601e-12    0.016328151 
10950000      400  2.6265265e-12    0.016328155 
10960000      400  2.6393547e-12    0.016328159 
10970000      400  2.1722574e-12    0.016328161 
10980000      400  2.6577265e-12    0.016328162 
10990000      400  2.3885339e-12    0.016328162 
11000000      400  2.1675847e-12    0.016328163 
11010000      400  2.3325396e-12    0.016328163 
11020000      400  2.5273356e-12    0.016328164 
11030000      400  2.4697413e-12    0.016328163 
11040000      400  2.2105949e-12    0.016328142 
11050000      400   2.120004e-12    0.016328115 
11060000      400  1.9155578e-12    0.016328088 
11070000      400  2.0572875e-12    0.016328061 
11080000      400  2.1189759e-12    0.016328033 
11090000      400  1.9390491e-12    0.016328005 
11100000      400  1.9253673e-12    0.016327977 
11110000      400  2.0036459e-12    0.016327948 
11120000      400  2.0298465e-12    0.016327919 
11130000      400  2.0224613e-12     0.01632789 
11140000      400  1.9947533e-12    0.016327861 
11150000      400  2.0004648e-12    0.016327832 
11160000      400  1.9838435e-12    0.016327802 
11170000      400  1.9562417e-12    0.016327771 
11180000      400  1.9432396e-12     0.01632774 
11190000      400   1.912681e-12    0.016327708 
11200000      400  1.8761435e-12    0.016327676 
11210000      400   1.834243e-12    0.016327634 
11220000      400  1.7504341e-12    0.016327587 
11230000      400  1.6985453e-12    0.016327538 
11240000      400  1.5929663e-12    0.016327488 
11250000      400  1.3639938e-12    0.016327435 
11260000      400  1.1883728e-12    0.016327375 
11270000      400  1.1603164e-12    0.016327314 
11280000      400  1.1612217e-12    0.016327253 
11290000      400  1.1518627e-12    0.016327191 
11300000      400  1.1461395e-12     0.01632713 
11310000      400  1.1361975e-12    0.016327069 
11320000      400  9.6928113e-13    0.016326914 
11330000      400  5.6649053e-13    0.016326758 
11340000      400  7.7144326e-13    0.016326629 
11350000      400  8.7327139e-13    0.016326533 
11360000      400  6.1989765e-13    0.016326434 
11370000      400  9.2113932e-13    0.016326336 
11380000      400  6.6174766e-13    0.016326238 
11390000      400   7.056012e-13    0.016326139 
11400000      400  7.7056133e-13    0.016326041 
11410000      400  6.3255902e-13    0.016325942 
11420000      400  5.4839876e-13    0.016325841 
11430000      400  5.5133369e-13    0.016325735 
11440000      400  5.3704694e-13    0.016325631 
11450000      400  5.4592794e-13    0.016325525 
11460000      400  6.4776611e-13    0.016325412 
11470000      400  6.4747289e-13    0.016325299 
11480000      400   6.238333e-13    0.016325186 
11490000      400  6.5444757e-13    0.016325072 
11500000      400  6.6755476e-13    0.016324957 
11510000      400   1.964333e-12    0.016324833 
11520000      400  1.4914762e-12    0.016324704 
11530000      400  1.0245254e-12    0.016324575 
11540000      400  1.0569025e-12    0.016324434 
11550000      400  1.1621058e-12    0.016324294 
11560000      400  1.4985628e-12    0.016324163 
11570000      400  2.6922322e-12    0.016324023 
11580000      400  4.0771349e-12    0.016323859 
11590000      400  4.4359681e-12    0.016323687 
11600000      400  1.7865239e-12    0.016323514 
11610000      400  1.8962838e-12     0.01632335 
11620000      400  2.1669958e-12     0.01632319 
11630000      400  2.1666357e-12     0.01632303 
11640000      400  1.7674352e-12    0.016322872 
11650000      400    1.23616e-12     0.01632272 
11660000      400  9.7882812e-13    0.016322575 
11670000      400   9.730123e-13     0.01632243 
11680000      400  1.3926447e-12    0.016322265 
11690000      400  1.5354592e-12    0.016322089 
11700000      400  9.3047143e-13    0.016321918 
11710000      400  5.8838585e-13    0.016321798 
11720000      400  6.6971518e-13    0.016321688 
11730000      400  7.3617207e-13    0.016321545 
11740000      400  6.0829273e-13     0.01632141 
11750000      400  5.6505195e-13     0.01632128 
11760000      400  5.8033762e-13    0.016321153 
11770000      400    5.73256e-13    0.016321029 
11780000      400  5.5634802e-13    0.016320907 
11790000      400  5.5808313e-13    0.016320788 
11800000      400  5.5747886e-13    0.016320671 
11810000      400  5.6247918e-13    0.016320558 
11820000      400   5.634784e-13    0.016320448 
11830000      400  5.7810737e-13    0.016320338 
11840000      400  5.6721267e-13     0.01632023 
11850000      400  5.7636893e-13    0.016320122 
11860000      400  5.7827221e-13    0.016320016 
11870000      400  5.7497599e-13    0.016319909 
11880000      400  5.8289181e-13    0.016319804 
11890000      400  5.7892636e-13    0.016319698 
11900000      400  5.8150549e-13    0.016319593 
11910000      400  5.8241788e-13    0.016319488 
11920000      400  5.8042225e-13    0.016319383 
11930000      400  5.8201748e-13    0.016319279 
11940000      400  5.7945994e-13    0.016319174 
11950000      400  5.7884264e-13    0.016319069 
11960000      400  6.1494508e-13    0.016319007 
11970000      400  6.3171614e-13    0.016318969 
11980000      400  8.1204456e-13    0.016318933 
11990000      400  1.3330404e-12    0.016318898 
12000000      400  1.1952298e-12    0.016318866 
12010000      400  1.2911991e-12    0.016318835 
12020000      400  9.1815365e-13    0.016318798 
12030000      400  9.4004621e-13    0.016318749 
12040000      400  1.0350334e-12    0.016318702 
12050000      400  1.0673054e-12    0.016318658 
12060000      400  9.0814059e-13    0.016318632 
12070000      400  1.1520059e-12    0.016318608 
12080000      400  1.1555179e-12    0.016318546 
12090000      400  7.3614866e-13    0.016318438 
12100000      400  9.3119598e-13    0.016318331 
12110000      400  1.3398989e-12    0.016318205 
12120000      400  1.1780761e-12    0.016318328 
12130000      400  1.0519536e-12    0.016318472 
12140000      400  1.8540474e-12    0.016318887 
12150000      400  2.1693955e-12    0.016319663 
12160000      400  2.2682712e-12    0.016320428 
12170000      400  2.0340659e-12    0.016321182 
12180000      400  1.6870661e-12     0.01632192 
12190000      400  2.3626908e-12    0.016322664 
12200000      400  2.2136327e-12    0.016323408 
12210000      400  2.1108322e-12    0.016324141 
12220000      400  2.3012867e-12     0.01632487 
12230000      400  2.7904719e-12    0.016325586 
12240000      400  2.3890189e-12    0.016326296 
12250000      400  4.1115561e-12    0.016327048 
12260000      400  6.1612884e-12      0.0163278 
12270000      400  7.1086481e-12    0.016328621 
12280000      400  5.7023833e-12    0.016329529 
12290000      400  4.9429393e-12    0.016330404 
12300000      400  5.2072024e-12     0.01633123 
12310000      400  9.7033303e-12    0.016331577 
12320000      400  5.2506561e-12    0.016331917 
12330000      400  3.6927949e-12    0.016332266 
12340000      400  4.5960665e-12    0.016332603 
12350000      400  7.2224734e-12    0.016332933 
12360000      400  8.5174345e-12    0.016333255 
12370000      400  8.1783466e-12    0.016333572 
12380000      400  8.0889934e-12    0.016333892 
12390000      400  7.2269393e-12    0.016334219 
12400000      400  8.6573142e-12    0.016334551 
12410000      400  9.0883954e-12    0.016334878 
12420000      400  7.9549685e-12    0.016335198 
12430000      400  7.5586839e-12    0.016335512 
12440000      400   7.428341e-12    0.016335819 
12450000      400  7.4274887e-12    0.016336121 
12460000      400  7.9205206e-12    0.016336419 
12470000      400  7.0470304e-12    0.016336713 
12480000      400  7.8562443e-12    0.016337004 
12490000      400  7.3240086e-12    0.016337284 
12500000      400  5.2870698e-12    0.016337541 
12510000      400   5.813309e-12    0.016337904 
12520000      400  2.6488585e-11    0.016338207 
12530000      400  6.1417467e-12    0.016338546 
12540000      400  1.9910157e-11     0.01633887 
12550000      400  3.2155221e-11    0.016339303 
12560000      400  3.0791583e-11    0.016339746 
12570000      400  4.2056599e-10     0.01634088 
12580000      400  2.0626588e-11    0.016341306 
12590000      400   8.976553e-11    0.016341813 
12600000      400  4.1987171e-11    0.016342319 
12610000      400  2.4791901e-12     0.01634278 
12620000      400  9.1437381e-11    0.016343218 
12630000      400  2.0031362e-11    0.016343691 
12640000      400  9.5416754e-12    0.016344109 
12650000      400  1.3564167e-11    0.016344434 
12660000      400  3.4040877e-11    0.016344766 
12670000      400  2.4974561e-11      0.0163451 
12680000      400  1.7884676e-11    0.016345429 
12690000      400  1.9215739e-11    0.016345757 
12700000      400  2.5545939e-11    0.016347009 
12710000      400  8.8438624e-11    0.016347399 
12720000      400  7.7130469e-12    0.016347761 
12730000      400  1.2224693e-12    0.016348091 
12740000      400  1.0322022e-11    0.016348496 
12750000      400   2.781307e-12    0.016348862 
12760000      400  4.1892921e-12    0.016349122 
12770000      400   2.136111e-12    0.016349433 
12780000      400  2.4718112e-12    0.016349725 
12790000      400  5.2066783e-13    0.016350012 
12800000      400  1.2353712e-12    0.016350274 
12810000      400  6.6047261e-13    0.016350536 
12820000      400   5.199401e-13    0.016350801 
12830000      400   6.215837e-13    0.016351051 
12840000      400  7.0731428e-13    0.016351301 
12850000      400  6.5368178e-13    0.016351559 
12860000      400  5.3401636e-13    0.016351815 
12870000      400  5.6062786e-13    0.016352062 
12880000      400  5.4323136e-13    0.016352315 
12890000      400  5.9301499e-13    0.016352563 
12900000      400  5.4745341e-13    0.016352812 
12910000      400  5.5097755e-13    0.016353063 
12920000      400   5.565782e-13    0.016353313 
12930000      400  5.5950869e-13    0.016353562 
12940000      400  5.7154518e-13    0.016353811 
12950000      400  5.9275945e-13     0.01635406 
12960000      400  5.7570732e-13    0.016354309 
12970000      400  5.7771295e-13     0.01635456 
12980000      400  6.0862766e-13    0.016354811 
12990000      400  1.1963841e-12    0.016355101 
13000000      400  3.9890213e-12    0.016355416 
13010000      400  1.1098421e-12    0.016355823 
13020000      400  6.4621089e-13    0.016356247 
13030000      400  3.8237737e-12     0.01635666 
13040000      400  9.1922027e-13    0.016357072 
13050000      400  1.8852672e-12    0.016357498 
13060000      400  1.8653547e-12    0.016357914 
13070000      400  7.5068013e-13    0.016358325 
13080000      400   8.204511e-13    0.016358628 
13090000      400  5.1185624e-13    0.016358941 
13100000      400  7.5957925e-13    0.016359248 
13110000      400  5.0861975e-13    0.016359546 
13120000      400  7.6662822e-13    0.016359853 
13130000      400  7.3353157e-13    0.016360148 
13140000      400  7.7656991e-13    0.016360437 
13150000      400  8.6075119e-13     0.01636072 
13160000      400  9.4350779e-13    0.016361003 
13170000      400   9.395246e-13    0.016361283 
13180000      400  1.0619657e-12    0.016361562 
13190000      400  1.0095659e-12    0.016361839 
13200000      400  1.1293454e-12    0.016362116 
13210000      400  1.1161636e-12    0.016362392 
13220000      400   1.168416e-12    0.016362667 
13230000      400  1.2125271e-12     0.01636294 
13240000      400  1.2153186e-12    0.016363213 
13250000      400  1.2691396e-12    0.016363485 
13260000      400  1.2913508e-12    0.016363756 
13270000      400  1.3084413e-12    0.016364026 
13280000      400  1.3489442e-12    0.016364295 
13290000      400  1.3679697e-12    0.016364564 
13300000      400  1.3879508e-12    0.016364832 
13310000      400  1.4184097e-12    0.016365099 
13320000      400  8.9060306e-13      0.0163654 
13330000      400  5.0997262e-13    0.016365748 
13340000      400  5.0147915e-13    0.016366108 
13350000      400   7.347176e-13    0.016366457 
13360000      400  4.9876718e-13    0.016366813 
13370000      400  7.1161202e-13    0.016367166 
13380000      400  5.1073361e-13    0.016367518 
13390000      400  5.9287492e-13    0.016367873 
13400000      400  5.7664111e-13    0.016368224 
13410000      400  5.5141321e-13     0.01636858 
13420000      400  6.3369189e-13    0.016368934 
13430000      400  5.8927841e-13    0.016369289 
13440000      400  6.2326869e-13    0.016369645 
13450000      400  5.6219076e-13        0.01637 
13460000      400  5.9348627e-13    0.016370355 
13470000      400  6.2001243e-13    0.016370711 
13480000      400  5.6631997e-13    0.016371067 
13490000      400  6.3440755e-13    0.016371423 
13500000      400  5.7983625e-13    0.016371756 
13510000      400  6.3314054e-13    0.016372083 
13520000      400  4.9579323e-13    0.016372414 
13530000      400  6.8388579e-13    0.016372705 
13540000      400   6.300761e-13    0.016372954 
13550000      400  6.5617686e-13    0.016373187 
13560000      400  6.8654444e-13    0.016373409 
13570000      400   6.920179e-13    0.016373619 
13580000      400  7.3966181e-13    0.016373818 
13590000      400  6.9751386e-13    0.016374009 
13600000      400  7.5680133e-13    0.016374192 
13610000      400  7.3221239e-13    0.016374369 
13620000      400  7.6310471e-13    0.016374541 
13630000      400   7.540727e-13    0.016374709 
13640000      400  7.8318046e-13    0.016374876 
13650000      400   7.689676e-13    0.016375039 
13660000      400  7.9697298e-13      0.0163752 
13670000      400   8.212827e-13    0.016375358 
13680000      400  8.4044137e-13    0.016375513 
13690000      400  8.8295317e-13    0.016375664 
13700000      400  8.8049586e-13     0.01637581 
13710000      400  8.9630801e-13    0.016375956 
13720000      400  1.0836069e-12    0.016376097 
13730000      400   1.535719e-12    0.016376222 
13740000      400  1.5570951e-12    0.016376342 
13750000      400  1.5725881e-12    0.016376458 
13760000      400  1.7687428e-12    0.016376571 
13770000      400  1.8314343e-12    0.016376683 
13780000      400  1.8090769e-12    0.016376793 
13790000      400  1.8630978e-12    0.016376901 
13800000      400  1.9504487e-12    0.016377009 
13810000      400  1.9851715e-12    0.016377116 
13820000      400  1.9903023e-12    0.016377222 
13830000      400  2.0166705e-12    0.016377328 
13840000      400  2.2053271e-12    0.016377432 
13850000      400  1.6800113e-12    0.016377535 
13860000      400  2.1620242e-12    0.016377641 
13870000      400  2.2733824e-12    0.016377747 
13880000      400  1.8402409e-12    0.016377849 
13890000      400  1.6175299e-12    0.016377949 
13900000      400  1.8703255e-12     0.01637805 
13910000      400  2.0540167e-12    0.016378152 
13920000      400  1.9067425e-12    0.016378255 
13930000      400  1.8118967e-12    0.016378359 
13940000      400  1.9009674e-12    0.016378463 
13950000      400   1.988948e-12    0.016378569 
13960000      400  2.0959725e-12    0.016378672 
13970000      400  2.0085901e-12    0.016378772 
13980000      400  2.0906827e-12    0.016378869 
13990000      400   2.190323e-12    0.016378965 
14000000      400  2.2370922e-12     0.01637906 
14010000      400  2.2213377e-12    0.016379155 
14020000      400  2.2281622e-12     0.01637925 
14030000      400  2.2420615e-12    0.016379345 
14040000      400  2.0356204e-12    0.016379329 
14050000      400  2.1655684e-12     0.01637918 
14060000      400   2.067846e-12    0.016379031 
14070000      400  1.9341294e-12    0.016378883 
14080000      400   1.922158e-12    0.016378736 
14090000      400  1.9785817e-12     0.01637859 
14100000      400  1.9576046e-12    0.016378445 
14110000      400  1.9009691e-12    0.016378301 
14120000      400  1.8955664e-12    0.016378158 
14130000      400  2.0451124e-12    0.016378018 
14140000      400  2.1496405e-12    0.016377881 
14150000      400  2.1782561e-12    0.016377746 
14160000      400  2.1748593e-12    0.016377613 
14170000      400  2.1806297e-12     0.01637748 
14180000      400  2.2165203e-12    0.016377344 
14190000      400  2.2422272e-12     0.01637721 
14200000      400  2.2566371e-12    0.016377076 
14210000      400  2.2957789e-12    0.016376943 
14220000      400  2.3475981e-12    0.016376811 
14230000      400  2.3447762e-12    0.016376679 
14240000      400  2.3218144e-12    0.016376547 
14250000      400  2.3252151e-12    0.016376415 
14260000      400   2.346768e-12    0.016376283 
14270000      400  2.7812907e-12    0.016376155 
14280000      400  2.8072948e-12    0.016376029 
14290000      400  2.8480011e-12    0.016375905 
14300000      400  2.9120879e-12     0.01637578 
14310000      400  2.9758344e-12    0.016375656 
14320000      400  2.9977248e-12    0.016375532 
14330000      400  2.9554812e-12    0.016375403 
14340000      400  2.8358799e-12    0.016375262 
14350000      400  2.7763641e-12    0.016375118 
14360000      400  2.8834805e-12    0.016374975 
14370000      400  3.0270095e-12    0.016374834 
14380000      400  3.1455555e-12    0.016374694 
14390000      400   3.204787e-12    0.016374555 
14400000      400  3.1882733e-12    0.016374418 
14410000      400   3.187858e-12    0.016374281 
14420000      400   3.198424e-12    0.016374146 
14430000      400  3.2170449e-12    0.016374012 
14440000      400  3.2105044e-12    0.016373879 
14450000      400  3.2520216e-12    0.016373747 
14460000      400  3.2554403e-12    0.016373616 
14470000      400  3.2421478e-12    0.016373486 
14480000      400  3.2728443e-12    0.016373358 
14490000      400  3.0719495e-12     0.01637323 
14500000      400  3.1226517e-12    0.016373102 
14510000      400  3.1865016e-12    0.016372976 
14520000      400  3.2225554e-12    0.016372851 
14530000      400  3.2603546e-12    0.016372728 
14540000      400  3.2798258e-12    0.016372607 
14550000      400  3.2887081e-12    0.016372487 
14560000      400   3.296797e-12    0.016372369 
14570000      400  3.3116203e-12    0.016372253 
14580000      400  3.3315859e-12    0.016372139 
14590000      400  3.3519656e-12    0.016372027 
14600000      400  3.4560387e-12    0.016371918 
14610000      400  3.5727833e-12    0.016371813 
14620000      400  3.6940874e-12    0.016371711 
14630000      400   3.747943e-12    0.016371612 
14640000      400  3.7876877e-12    0.016371517 
14650000      400  3.8195002e-12    0.016371426 
14660000      400  3.8521266e-12    0.016371339 
14670000      400  3.8919423e-12    0.016371259 
14680000      400   3.932531e-12    0.016371192 
14690000      400  4.0869539e-12    0.016371125 
14700000      400  4.2635428e-12    0.016371062 
14710000      400  4.2334119e-12       0.016371 
14720000      400  4.2277173e-12    0.016370939 
14730000      400   4.233001e-12    0.016370877 
14740000      400  4.2458475e-12    0.016370816 
14750000      400  4.2678271e-12    0.016370756 
14760000      400  4.2884088e-12    0.016370696 
14770000      400  4.3076954e-12    0.016370636 
14780000      400  4.3162814e-12    0.016370576 
14790000      400  3.8860934e-12    0.016370503 
14800000      400  3.8762249e-12    0.016370386 
14810000      400  3.9175553e-12    0.016370271 
14820000      400   3.984738e-12    0.016370158 
14830000      400  3.9898915e-12    0.016370183 
14840000      400  3.9622812e-12    0.016370208 
14850000      400  3.9376606e-12    0.016370234 
14860000      400  3.9314891e-12     0.01637026 
14870000      400  3.9526181e-12    0.016370286 
14880000      400  3.9894852e-12    0.016370312 
14890000      400  4.1197578e-12    0.016370337 
14900000      400  4.1458538e-12    0.016370363 
14910000      400  4.1638394e-12    0.016370388 
14920000      400    4.18143e-12    0.016370414 
14930000      400   4.201051e-12    0.016370439 
14940000      400  4.2194501e-12    0.016370465 
14950000      400   4.240502e-12    0.016370491 
14960000      400  4.2750346e-12    0.016370516 
14970000      400  4.2952041e-12    0.016370541 
14980000      400  4.3131263e-12    0.016370567 
14990000      400  4.3304479e-12    0.016370592 
15000000      400  4.3509811e-12    0.016370617 
15010000      400  4.3634966e-12    0.016370643 
15020000      400  4.3807008e-12    0.016370669 
15030000      400  4.3296763e-12    0.016370695 
15040000      400   4.412467e-12     0.01637072 
15050000      400  4.4434841e-12    0.016370745 
15060000      400  4.4616437e-12     0.01637077 
15070000      400  4.4700968e-12    0.016370796 
15080000      400  4.4741205e-12    0.016370821 
15090000      400  4.0420028e-12    0.016370843 
15100000      400  4.0520969e-12    0.016370862 
15110000      400  4.2554181e-12    0.016370882 
15120000      400  4.2932092e-12    0.016370902 
15130000      400  2.1059079e-12     0.01637093 
15140000      400  2.8531935e-12    0.016370959 
15150000      400  3.0151997e-12    0.016370988 
15160000      400  2.3340528e-12    0.016371017 
15170000      400  3.1277445e-12    0.016371046 
15180000      400  2.7000547e-12    0.016371075 
15190000      400   2.729048e-12    0.016371104 
15200000      400  3.1198522e-12    0.016371133 
15210000      400  2.6953867e-12    0.016371162 
15220000      400  3.1027381e-12    0.016371191 
15230000      400  2.8284418e-12    0.016371219 
15240000      400  2.9265937e-12    0.016371248 
15250000      400   3.009735e-12    0.016371274 
15260000      400  2.9937246e-12    0.016371299 
15270000      400  3.1187996e-12    0.016371324 
15280000      400  3.0841266e-12    0.016371345 
15290000      400  3.2366231e-12    0.016371363 
15300000      400  3.1549656e-12     0.01637138 
15310000      400  3.2245896e-12    0.016371395 
15320000      400  3.2157301e-12     0.01637141 
15330000      400   3.213496e-12    0.016371423 
15340000      400  3.2861421e-12    0.016371437 
15350000      400   3.325576e-12    0.016371449 
15360000      400  3.3453922e-12     0.01637146 
15370000      400  3.3219823e-12    0.016371471 
15380000      400  3.3685369e-12    0.016371482 
15390000      400  3.3107009e-12    0.016371492 
15400000      400  3.3246633e-12    0.016371501 
15410000      400  3.3293754e-12     0.01637151 
15420000      400  3.3221896e-12    0.016371519 
15430000      400  3.3414806e-12    0.016371527 
15440000      400  3.3313804e-12    0.016371535 
15450000      400  3.3529052e-12    0.016371543 
15460000      400  3.3509776e-12     0.01637155 
15470000      400    3.36338e-12    0.016371557 
15480000      400  3.3319461e-12    0.016371564 
15490000      400  3.1955945e-12    0.016371571 
15500000      400  3.1830664e-12    0.016371578 
15510000      400  2.9603317e-12    0.016371586 
15520000      400  2.5874187e-12    0.016371593 
15530000      400  2.3773665e-12      0.0163716 
15540000      400  2.1431164e-12    0.016371607 
15550000      400  2.0011664e-12    0.016371613 
15560000      400  2.2069789e-12    0.016371619 
15570000      400  2.1960859e-12    0.016371624 
15580000      400  2.2952972e-12    0.016371628 
15590000      400  2.2354511e-12    0.016371632 
15600000      400  2.2892905e-12    0.016371636 
15610000      400  2.2270032e-12    0.016371639 
15620000      400  2.2489446e-12    0.016371642 
15630000      400  2.1996847e-12    0.016371644 
15640000      400  2.1496491e-12    0.016371646 
15650000      400  2.1427046e-12    0.016371647 
[...]
596670000      400  2.9604531e-12    0.016338978 
596680000      400  2.4291962e-12    0.016338472 
596690000      400   1.108637e-10    0.016337042 
596700000      400  2.8213975e-11    0.016335989 
596710000      400  1.7025214e-11    0.016335095 
596720000      400  5.1930463e-12    0.016334412 
596730000      400  5.2403347e-12    0.016333732 
596740000      400  3.2249307e-12    0.016333054 
596750000      400  4.3059253e-12    0.016332369 
596760000      400   2.979067e-12    0.016331655 
596770000      400  2.4661791e-12    0.016331128 
596780000      400  2.4431411e-12    0.016330728 
596790000      400  6.6138345e-12    0.016330317 
596800000      400  1.2498349e-11    0.016329955 
596810000      400  1.5989535e-11    0.016329561 
596820000      400  1.1426319e-11    0.016329254 
596830000      400  5.6817683e-12    0.016328964 
596840000      400  3.1174123e-12    0.016328514 
596850000      400  6.3165363e-12    0.016328024 
596860000      400  3.9763838e-12    0.016327531 
596870000      400  3.8498224e-12    0.016327011 
596880000      400  3.1126066e-12    0.016326519 
596890000      400   2.313892e-12    0.016326021 
596900000      400  4.3223251e-12    0.016325558 
596910000      400  3.4779324e-12    0.016325196 
596920000      400   4.348663e-12    0.016324836 
596930000      400  3.4025981e-12    0.016324465 
596940000      400  2.5355303e-12    0.016324125 
596950000      400  2.5178227e-12    0.016323764 
596960000      400  2.4313227e-12    0.016323412 
596970000      400   3.309718e-12    0.016323041 
596980000      400  1.6776631e-10    0.016321083 
596990000      400   1.253708e-08    0.016310613 
597000000      400  5.3261338e-10    0.016310711 
597010000      400  4.3820779e-10    0.016310847 
597020000      400  9.1698349e-10    0.016310942 
597030000      400   5.825418e-10    0.016311021 
597040000      400  1.2921056e-10    0.016311085 
597050000      400  4.9214235e-12    0.016311126 
597060000      400  1.9839308e-12     0.01631095 
597070000      400  3.3338697e-12     0.01631071 
597080000      400  3.8812078e-12    0.016310467 
597090000      400  2.8576516e-12    0.016310269 
597100000      400  2.3065545e-12    0.016310078 
597110000      400  2.4935794e-12    0.016310457 
597120000      400   2.657816e-12    0.016310902 
597130000      400  2.6174925e-12     0.01631136 
597140000      400  3.3453339e-12    0.016311851 
597150000      400  2.8971343e-12    0.016312357 
597160000      400  2.4062022e-12    0.016313072 
597170000      400  2.0615034e-12    0.016313782 
597180000      400  2.2035222e-12    0.016314489 
597190000      400  2.3936118e-12    0.016315194 
597200000      400  2.4243232e-12    0.016315918 
597210000      400  2.1676289e-12    0.016316649 
597220000      400   1.980224e-12     0.01631739 
597230000      400  2.5343303e-12    0.016318132 
597240000      400  2.6769038e-12    0.016318877 
597250000      400  4.6595711e-12     0.01631975 
597260000      400  3.9788385e-12    0.016320618 
597270000      400  4.3400202e-12    0.016321565 
597280000      400  3.1910958e-12    0.016322553 
597290000      400  2.6474532e-12     0.01632358 
597300000      400  1.2146792e-11    0.016324593 
597310000      400  7.7571713e-12    0.016325529 
597320000      400  4.1191879e-12    0.016326427 
597330000      400  1.2116516e-09    0.016330057 
597340000      400  4.3513093e-11    0.016330458 
597350000      400  8.7711933e-12    0.016331312 
597360000      400  1.0100951e-11    0.016332187 
597370000      400   8.192846e-12    0.016333217 
597380000      400  3.2428005e-12    0.016334004 
597390000      400  4.5789817e-12    0.016334788 
597400000      400  4.0148976e-12    0.016335538 
597410000      400   3.143545e-12    0.016336269 
597420000      400  3.0526341e-12    0.016337001 
597430000      400  2.8779034e-12    0.016337722 
597440000      400  2.9996165e-12    0.016338431 
597450000      400  2.9414686e-12    0.016339132 
597460000      400  2.9039592e-12    0.016339821 
597470000      400  2.8154019e-12    0.016340505 
597480000      400  2.7350843e-12    0.016341187 
597490000      400  2.5403639e-12    0.016341843 
597500000      400  2.8933704e-12     0.01634247 
597510000      400  2.3042404e-12     0.01634307 
597520000      400    2.47627e-12    0.016343669 
597530000      400  2.4719018e-12    0.016344256 
597540000      400  2.9498962e-12    0.016344833 
597550000      400  2.0150538e-12    0.016345404 
597560000      400   2.568393e-12    0.016345998 
597570000      400  2.7176162e-12    0.016346648 
597580000      400  3.7671578e-12    0.016347277 
597590000      400  3.5381315e-12    0.016347893 
597600000      400  4.1220967e-12    0.016348506 
597610000      400  3.6614823e-12    0.016349124 
597620000      400  3.0483991e-11    0.016349862 
597630000      400  4.8702806e-12    0.016350547 
597640000      400  1.1706761e-11    0.016351197 
597650000      400  7.6358946e-12    0.016351593 
597660000      400  6.0640667e-12    0.016351854 
597670000      400  4.5991099e-12    0.016352205 
597680000      400  4.9300165e-12    0.016352531 
597690000      400  4.2154954e-12    0.016352888 
597700000      400  3.9943463e-12    0.016353231 
597710000      400  6.8739936e-12    0.016353565 
597720000      400  8.7083602e-12    0.016353919 
597730000      400  6.0560948e-12    0.016354246 
597740000      400  4.7706717e-12    0.016354509 
597750000      400  5.4060716e-12    0.016354763 
597760000      400  6.4954272e-12    0.016355012 
597770000      400  5.0914287e-12    0.016355251 
597780000      400  4.9446116e-12    0.016355488 
597790000      400  4.7024848e-12    0.016355719 
597800000      400  4.6948049e-12    0.016355944 
597810000      400  4.9914947e-12    0.016356151 
597820000      400  4.5767364e-12     0.01635635 
597830000      400  5.5250951e-12    0.016356535 
597840000      400  8.9638973e-12     0.01635677 
597850000      400  3.0895422e-11    0.016357195 
597860000      400  5.4460184e-12    0.016357578 
597870000      400  7.5669641e-12    0.016357945 
597880000      400  6.9744274e-12    0.016358323 
597890000      400  6.1655719e-12    0.016358704 
597900000      400   6.961666e-12     0.01635913 
597910000      400  1.1279856e-11    0.016359566 
597920000      400  1.0664061e-11    0.016359928 
597930000      400  1.4179779e-11    0.016360344 
597940000      400  1.0609355e-11    0.016360749 
597950000      400   1.007442e-11    0.016361053 
597960000      400  2.6263234e-11    0.016361394 
597970000      400  5.4469281e-11    0.016361563 
597980000      400  1.5323204e-11    0.016361449 
597990000      400  1.7907282e-11    0.016361365 
598000000      400  1.3149225e-11    0.016361478 
598010000      400  1.1197086e-11    0.016361339 
598020000      400  1.1557113e-11    0.016361394 
598030000      400  3.9646286e-12    0.016361384 
598040000      400  3.5659175e-12    0.016361403 
598050000      400  7.4346381e-12    0.016361368 
598060000      400  5.3786864e-12    0.016361428 
598070000      400   1.693507e-11    0.016361618 
598080000      400    8.18834e-12    0.016361871 
598090000      400   2.727811e-11    0.016361999 
598100000      400  2.4725857e-11    0.016361999 
598110000      400  1.2763554e-11    0.016362009 
598120000      400  2.9701895e-12    0.016362042 
598130000      400  2.5158245e-12     0.01636209 
598140000      400  3.4942317e-12    0.016362147 
598150000      400   3.744576e-12    0.016362196 
598160000      400  3.8365551e-12     0.01636224 
598170000      400  4.1186532e-12    0.016362279 
598180000      400  4.1983407e-12    0.016362313 
598190000      400  4.2091212e-12    0.016362343 
598200000      400  4.1016472e-12    0.016362359 
598210000      400  4.3792653e-12    0.016362367 
598220000      400  4.3617042e-12    0.016362376 
598230000      400  4.2464713e-12    0.016362383 
598240000      400  4.2208026e-12    0.016362391 
598250000      400  4.3164759e-12    0.016362399 
598260000      400   4.428625e-12    0.016362407 
598270000      400  4.5066153e-12    0.016362415 
598280000      400  4.6924667e-12    0.016362424 
598290000      400   4.764106e-12    0.016362433 
598300000      400  4.9891595e-12    0.016362442 
598310000      400  4.9195102e-12    0.016362452 
598320000      400  4.9663151e-12    0.016362462 
598330000      400  4.5965534e-12    0.016362471 
598340000      400  4.2576104e-12    0.016362488 
598350000      400  4.2638502e-12      0.0163625 
598360000      400  3.9811581e-12    0.016362506 
598370000      400   5.202146e-12    0.016362517 
598380000      400  3.5986682e-12    0.016362535 
598390000      400   3.536747e-12    0.016362563 
598400000      400  4.4125888e-12    0.016362607 
598410000      400  5.3334704e-12     0.01636266 
598420000      400  5.2679047e-12     0.01636272 
598430000      400  5.1924437e-12    0.016362784 
598440000      400  4.3670374e-12    0.016362852 
598450000      400  4.2208815e-12    0.016362902 
598460000      400  4.0257011e-12    0.016362912 
598470000      400  4.0801633e-12    0.016362924 
598480000      400  3.6756871e-12    0.016362936 
598490000      400  3.5576595e-12    0.016362945 
598500000      400  3.6726508e-12    0.016362955 
598510000      400  3.5614097e-12    0.016362965 
598520000      400  3.6852556e-12    0.016362975 
598530000      400  3.5018137e-12    0.016362983 
598540000      400  3.5948624e-12    0.016362991 
598550000      400  3.6022232e-12    0.016363002 
598560000      400  3.5672299e-12    0.016363013 
598570000      400  3.6119811e-12    0.016363026 
598580000      400  3.7574701e-12     0.01636304 
598590000      400   3.933879e-12    0.016363057 
598600000      400  3.9066784e-12     0.01636308 
598610000      400  4.0619423e-12    0.016363108 
598620000      400  4.0817061e-12    0.016363143 
598630000      400  4.1222296e-12    0.016363179 
598640000      400  4.1715254e-12    0.016363217 
598650000      400  4.1934579e-12    0.016363257 
598660000      400  4.2132175e-12    0.016363299 
598670000      400  4.2237515e-12    0.016363343 
598680000      400  4.3085997e-12    0.016363389 
598690000      400  4.2054362e-12    0.016363436 
598700000      400  4.2621341e-12    0.016363485 
598710000      400   4.412193e-12    0.016363534 
598720000      400  4.1921249e-12    0.016363588 
598730000      400  4.4911035e-12    0.016363641 
598740000      400  4.3407058e-12    0.016363698 
598750000      400  4.1887852e-12    0.016363762 
598760000      400  4.0964313e-12    0.016363831 
598770000      400  3.9950103e-12    0.016363904 
598780000      400  3.8964175e-12    0.016363978 
598790000      400  3.8158467e-12    0.016364054 
598800000      400  3.4289387e-12    0.016364138 
598810000      400  3.3235418e-12    0.016364232 
598820000      400  3.3240691e-12    0.016364328 
598830000      400    3.44162e-12    0.016364326 
598840000      400   3.524336e-12    0.016364269 
598850000      400  3.4114969e-12    0.016364212 
598860000      400  3.2766281e-12    0.016364151 
598870000      400  3.2390306e-12    0.016364079 
598880000      400  3.1310415e-12    0.016363991 
598890000      400  3.3209046e-12    0.016364017 
598900000      400  3.2828016e-12    0.016364135 
598910000      400  3.2763853e-12    0.016364266 
598920000      400   3.217553e-12    0.016364401 
598930000      400  3.1678405e-12    0.016364539 
598940000      400  3.7480559e-12    0.016364717 
598950000      400  3.0471767e-12    0.016364894 
598960000      400  3.8732628e-12    0.016365056 
598970000      400  3.7151679e-12    0.016365223 
598980000      400  4.0675603e-12    0.016365389 
598990000      400  3.6749186e-12    0.016365539 
599000000      400  3.9300107e-12    0.016365688 
599010000      400  4.1882215e-12    0.016365826 
599020000      400  3.6696679e-12     0.01636596 
599030000      400  3.6933528e-12    0.016366096 
599040000      400  3.9748292e-12    0.016366188 
599050000      400  3.8593157e-12     0.01636627 
599060000      400  3.9165054e-12    0.016366353 
599070000      400  3.7992684e-12    0.016366436 
599080000      400  3.7217831e-12    0.016366521 
599090000      400  3.7528663e-12    0.016366605 
599100000      400  3.9212459e-12    0.016366687 
599110000      400  3.7811546e-12    0.016366768 
599120000      400  3.4785201e-12    0.016366859 
599130000      400  3.5672933e-12    0.016366949 
599140000      400  3.5238884e-12    0.016367038 
599150000      400  3.6386683e-12    0.016367127 
599160000      400   3.679284e-12    0.016367213 
599170000      400  3.6307877e-12    0.016367299 
599180000      400   4.948396e-12    0.016367405 
599190000      400   2.629094e-12    0.016367501 
599200000      400  2.9105877e-12    0.016367586 
599210000      400  2.9234174e-12    0.016367677 
599220000      400  3.9308664e-12    0.016367691 
599230000      400  2.9169752e-12    0.016367262 
599240000      400  2.9228945e-12    0.016366819 
599250000      400  3.1384272e-12    0.016366392 
599260000      400  2.3950666e-12    0.016365947 
599270000      400  2.8862873e-12    0.016365506 
599280000      400  2.5985537e-12    0.016365064 
599290000      400  2.4058819e-12    0.016364632 
599300000      400  2.5190211e-12    0.016364201 
599310000      400  2.4874572e-12    0.016363772 
599320000      400  3.4760552e-12    0.016363295 
599330000      400  2.5648115e-12    0.016362796 
599340000      400  2.8028461e-12    0.016362302 
599350000      400  1.1766888e-11    0.016361672 
599360000      400  1.3597025e-11    0.016360915 
599370000      400   9.431907e-12    0.016360161 
599380000      400  7.1862998e-12    0.016359422 
599390000      400  3.9916839e-12    0.016358805 
599400000      400  4.0441513e-12    0.016358323 
599410000      400  5.3080064e-12    0.016357806 
599420000      400   4.978646e-12    0.016357261 
599430000      400  4.4268129e-12     0.01635672 
599440000      400  4.4444219e-12    0.016356174 
599450000      400  4.0732098e-12    0.016355579 
599460000      400  4.6734238e-12    0.016354962 
599470000      400  7.8795225e-12    0.016354282 
599480000      400  6.5748145e-12    0.016353576 
599490000      400  6.6654373e-12    0.016352867 
599500000      400   5.038912e-12    0.016352121 
599510000      400  5.8655144e-12    0.016351479 
599520000      400  7.6593207e-12    0.016350692 
599530000      400  9.2160852e-12    0.016349929 
599540000      400  1.0088606e-11    0.016349137 
599550000      400  9.0183375e-12    0.016348413 
599560000      400  3.5303898e-12    0.016347761 
599570000      400   2.550436e-12    0.016347266 
599580000      400  2.7590535e-12    0.016346804 
599590000      400  2.5603506e-12     0.01634636 
599600000      400  2.5318975e-12    0.016345928 
599610000      400  2.5126174e-12    0.016345507 
599620000      400  2.4803074e-12    0.016345074 
599630000      400  2.2773398e-12    0.016344635 
599640000      400  2.2765004e-12    0.016344176 
599650000      400  2.3768362e-12    0.016343717 
599660000      400  2.3888694e-12    0.016343241 
599670000      400  5.9396192e-12    0.016342575 
599680000      400  3.6007024e-12    0.016341983 
599690000      400  2.6763553e-12    0.016341382 
599700000      400  2.1325748e-12    0.016340832 
599710000      400  3.0390128e-12    0.016340316 
599720000      400  4.2192143e-12    0.016339806 
599730000      400  4.3328421e-12    0.016339274 
599740000      400  3.1761691e-12    0.016338686 
599750000      400  4.0344963e-12    0.016338083 
599760000      400  5.4307844e-12    0.016337461 
599770000      400  2.4978475e-12    0.016336891 
599780000      400  2.7064655e-12    0.016336416 
599790000      400   1.978571e-12    0.016335962 
599800000      400  1.9355182e-12    0.016335507 
599810000      400  1.6605077e-12    0.016335063 
599820000      400  1.7997284e-12    0.016334625 
599830000      400  2.0097229e-12      0.0163342 
599840000      400  1.8535397e-12    0.016333758 
599850000      400  1.7493376e-12    0.016333417 
599860000      400  1.4729593e-12    0.016333372 
599870000      400  1.4923311e-12    0.016333331 
599880000      400  1.4566756e-12    0.016333286 
599890000      400  1.4351266e-12    0.016333239 
599900000      400  1.4294894e-12    0.016333193 
599910000      400  1.4217887e-12    0.016333147 
599920000      400    1.41077e-12      0.0163331 
599930000      400  2.0967566e-12     0.01633305 
599940000      400  1.8419235e-12    0.016332993 
599950000      400  1.8945425e-12    0.016332934 
599960000      400  1.8737354e-12    0.016332868 
599970000      400  1.9416247e-12    0.016332799 
599980000      400  1.9472684e-12    0.016332728 
599990000      400  1.9463773e-12    0.016332655 
600000000      400  2.0280059e-12    0.016332577 
600010000      400   1.194231e-11    0.016332464 
600020000      400  4.0619974e-12    0.016332341 
600030000      400  2.4432516e-12    0.016332273 
600040000      400  2.2134266e-12    0.016332218 
600050000      400  2.9756399e-12    0.016332176 
600060000      400  3.1647134e-12    0.016332045 
600070000      400   2.522841e-12    0.016331786 
600080000      400  3.7010514e-12    0.016331532 
600090000      400  4.2245667e-12    0.016331276 
600100000      400  5.0152598e-12    0.016331002 
600110000      400  4.0157084e-12    0.016330729 
600120000      400  4.9642685e-12    0.016330459 
600130000      400  5.3678375e-12    0.016330186 
600140000      400  4.0666667e-12    0.016329893 
600150000      400   2.530035e-12    0.016329896 
600160000      400   2.528968e-12    0.016330024 
600170000      400  2.4110574e-12    0.016330048 
600180000      400  2.6510288e-12    0.016330017 
600190000      400  2.5259917e-12    0.016330001 
600200000      400  2.2514753e-12    0.016330203 
600210000      400  2.3890366e-12    0.016330393 
600220000      400  2.7093751e-12    0.016330562 
600230000      400  2.5974359e-12    0.016330714 
600240000      400  2.7332936e-12    0.016330857 
600250000      400   2.889426e-12    0.016330991 
600260000      400  2.9815782e-12    0.016331115 
600270000      400  3.2187687e-12     0.01633122 
600280000      400  2.9730558e-12    0.016331254 
600290000      400  2.8825706e-12     0.01633129 
600300000      400  3.2187641e-12    0.016331328 
600310000      400  3.2130167e-12    0.016331361 
600320000      400   3.065305e-12    0.016331394 
600330000      400  3.3089739e-12    0.016331429 
600340000      400  2.9067884e-12    0.016331463 
600350000      400  3.2153807e-12    0.016331502 
600360000      400  2.9307366e-12    0.016331547 
600370000      400  3.0166613e-12    0.016331597 
600380000      400  3.0861127e-12    0.016331649 
600390000      400  3.1277859e-12    0.016331701 
600400000      400  3.1338543e-12    0.016331755 
600410000      400  3.2045538e-12     0.01633181 
600420000      400   3.266953e-12    0.016331863 
600430000      400  3.2918362e-12    0.016331917 
600440000      400  2.8660006e-12    0.016331975 
600450000      400  3.2473917e-12    0.016332038 
600460000      400  2.8547136e-12    0.016332099 
600470000      400   3.271705e-12    0.016332164 
600480000      400  2.8021505e-12    0.016332228 
600490000      400  3.2922679e-12    0.016332304 
600500000      400  2.8850459e-12    0.016332406 
600500002      400  2.8891691e-12    0.016332406 
Loop time of 164653 on 4 procs for 600000000 steps with 400 atoms, finish time Sat Oct  7 12:05:43 2017


Pair  time (%) = 58993.3 (35.8288)
Neigh time (%) = 15.4134 (0.00936116)
Comm  time (%) = 4926.93 (2.99231)
Outpt time (%) = 150.626 (0.0914809)
Other time (%) = 100567 (61.0781)

Nlocal:    100 ave 241 max 0 min
Histogram: 2 0 0 0 0 0 1 0 0 1
Nghost:    79.75 ave 170 max 0 min
Histogram: 2 0 0 0 0 0 0 0 1 1
Neighs:    1783 ave 4289 max 0 min
Histogram: 2 0 0 0 0 0 1 0 0 1

Total # of neighbors = 7132
Ave neighs/atom = 17.83
Neighbor list builds = 60001
Dangerous builds = 0

   write_restart	restart/shear_constant_volume.restart		# write a binary file of the current state of the simulation


