LIGGGHTS (Version LIGGGHTS-PUBLIC 3.7.0, compiled 2017-07-25-17:37:11 by dvan, git commit c449f30b63c5eec5c8053a67dccd892fe2c5cef2)
   ### Initialization
   atom_style	granular 	# atoms will have coordinates, velocities, atom IDs, types, and diameter, mass, angular velocity
   boundary		p f f 		# periodic in x, fixed in y and z
   newton		off 		# if two particles on different processors, results are not communicated
   atom_modify	map array 	# processors store lookup table of length equal to number of particles
   communicate	single vel yes	# set inter-processor communication
   units		si			# use SI units

   ### Region
   region		reg block 0.0 0.02 0.0 0.04 -0.0006 0.0006  units box	# ID style xlo xhi ylo yhi zlo zhi keyword arg (region ID=reg, units defined by the units command)
   read_restart	restart/insert_and_compress.restart	# read restart file
  orthogonal box = (0 0 -0.0006) to (0.02 0.04 0.0006)
  1 by 4 by 1 MPI processor grid
  400 atoms
   neighbor		0.002 bin	# extra_distance_beyond_force_cutoff algorithm_used_to_build_the_neighbor_list
   neigh_modify	delay 0		# delay 0 step since last build

   ### Material properties
   fix			m1 all property/global youngsModulus peratomtype   5.e6				# ID group_ID atom_or_global valid_C++_string style args (fix ID=m1, global)
   fix			m2 all property/global poissonsRatio peratomtype   0.15				# ID group_ID atom_or_global valid_C++_string style args (fix ID=m2, global)
   fix			m3 all property/global coefficientRestitution peratomtypepair 1 0.5	# ID group_ID atom_or_global valid_C++_string style args (fix ID=m3, global)
   fix			m4 all property/global coefficientFriction peratomtypepair 1 0.5	# ID group_ID atom_or_global valid_C++_string style args (fix ID=m4, global)

   ### Contact model
   pair_style	gran model hertz tangential history	# contact model
   pair_coeff	* *			# default
   timestep		0.000001	# timestep is 1 microsec
   fix			1 all nve/sphere	# constant no of particles n; volume v, energy e are regulated; total energy is conserved; temperature t, pressure p are unregulated

   ### Walls
   fix			bottom all wall/gran model hertz tangential history primitive type 1 yplane 0	# bound the simulation domain of the granular system with a frictional wall
Resetting global state of Fix history_bottom Style property/atom from restart file info
Resetting per-atom state of Fix history_bottom Style property/atom from restart file info

   ### Computes
   compute		ymax all reduce max y	# ID group_ID reduce which_attribute arg (take vector and pick out the maximum y as scalar, ID=ymax)
   compute		11 all stress/atom pair	# ID group_ID stress/atom arg
   compute		1 all erotate/sphere	# ID group_ID erotate/sphere (compute total rotational KE)

   fix			ts all check/timestep/gran 1000 0.1 0.1	# ID group_ID check/timestep/gran nevery fraction_r fraction_h (estimate Rayleigh-Hertz time every nevery timesteps)
   thermo_style	custom step atoms ke c_ymax	# print thermo info: timestep, no of atoms, ke, 'compute ymax' to screen and log file
   thermo		10000						# output thermo info every 10000 timesteps
   thermo_modify	lost ignore norm no		# ignore lost atoms, don't normalize various thermo info by no of atoms
   restart		10000 restart/file*.restart	# write restart files every 10000 timesteps, toggle between them

   ### Shearing wall
   fix			moving all wall/gran model hertz tangential history primitive type 1 yplane 0.016720 shear x 0.0005	# shear wall at y=0.016720 from mesh.vtk, shear velocity=0.0005

   fix			2D all setforce NULL NULL 0	# ID group_ID setforce fx fy fz (ID=2D, NULL means do not alter force in that dimension, zero fz every timestep)

   run 			1										# run 1 timestep and then zero out velocity and angular velocity
Resetting global state of Fix contacthistory Style contacthistory from restart file info
Resetting per-atom state of Fix contacthistory Style contacthistory from restart file info
Setting up run at Tue May  1 21:53:32 2018

Memory usage per processor = 7.73852 Mbytes
    Step    Atoms         KinEng           ymax 
  500001      400   1.487724e-12    0.016349227 
  500002      400  8.7079892e-10    0.016349227 
Loop time of 0.000714242 on 4 procs for 1 steps with 400 atoms, finish time Tue May  1 21:53:32 2018


Pair  time (%) = 0.000155807 (21.8142)
Neigh time (%) = 0 (0)
Comm  time (%) = 2.55704e-05 (3.58007)
Outpt time (%) = 0.000280261 (39.2389)
Other time (%) = 0.000252604 (35.3668)

Nlocal:    100 ave 239 max 0 min
Histogram: 2 0 0 0 0 0 1 0 0 1
Nghost:    79.25 ave 173 max 0 min
Histogram: 2 0 0 0 0 0 0 0 1 1
Neighs:    1786.25 ave 4269 max 0 min
Histogram: 2 0 0 0 0 0 1 0 0 1

Total # of neighbors = 7145
Ave neighs/atom = 17.8625
Neighbor list builds = 0
Dangerous builds = 0
   velocity		all set NULL NULL 0 sum no units box	# set vx vy vz to 0, sum=no means new velocity will replace the old one
   set			type 1 omegax 0 omegay 0 omegaz 0		# set omegax, omegay, omegaz of all atoms to be zero
  400 settings made for omegax
  400 settings made for omegay
  400 settings made for omegaz

   ### Dumps
   dump			dump_particles all custom/vtk 10000 post/shearing*.vtk id type radius x y z vx vy vz fx fy fz omegax omegay omegaz

   ### Shearing particles
   fix			2D2 all setforce NULL NULL 0	# ID group_ID setforce fx fy fz (ID=2D2, NULL means do not alter force in that dimension, zero fz every timestep)

   run			50000000	# run 50000000 timesteps
Setting up run at Tue May  1 21:53:32 2018

Memory usage per processor = 7.73871 Mbytes
    Step    Atoms         KinEng           ymax 
  500002      400  8.7079892e-10    0.016349227 
  510000      400  1.2931213e-09    0.016349388 
  520000      400  1.2288772e-10    0.016349279 
  530000      400  1.4897871e-11    0.016349049 
  540000      400  7.7740587e-11    0.016348936 
  550000      400  3.1551922e-11    0.016348829 
  560000      400  1.7934297e-11    0.016348767 
  570000      400  1.9035098e-11    0.016348738 
  580000      400  1.3472344e-11     0.01634871 
  590000      400  1.3131456e-11    0.016348684 
  600000      400  1.0298739e-11    0.016348661 
  610000      400  1.1121449e-11    0.016348632 
  620000      400  1.2605639e-11    0.016348603 
  630000      400  1.2631648e-11    0.016348579 
  640000      400  1.4031271e-11    0.016348548 
  650000      400  1.3418605e-11    0.016348521 
  660000      400   1.224261e-11    0.016348497 
  670000      400  1.3109481e-11    0.016348464 
  680000      400  1.4043816e-11    0.016348441 
  690000      400  1.3820333e-11    0.016348409 
  700000      400  1.3736081e-11    0.016348381 
  710000      400  1.3799851e-11    0.016348355 
  720000      400  1.2351851e-11    0.016348322 
  730000      400  1.3304939e-11    0.016348298 
  740000      400   1.171328e-11    0.016348265 
  750000      400  1.3168348e-11    0.016348238 
  760000      400  1.2702409e-11     0.01634821 
  770000      400  1.1855423e-11    0.016348175 
  780000      400  1.1785807e-11    0.016348156 
  790000      400  1.1993147e-11    0.016348115 
  800000      400  1.2479722e-11    0.016348087 
  810000      400  1.2428718e-11    0.016348062 
  820000      400  1.1527259e-11    0.016348011 
  830000      400  1.1883237e-11    0.016347963 
  840000      400  1.1419481e-11    0.016347896 
  850000      400  1.2312415e-11    0.016347867 
  860000      400  1.2688875e-11     0.01634781 
  870000      400   1.325501e-11    0.016347766 
  880000      400   1.256812e-11    0.016347714 
  890000      400  1.2822436e-11     0.01634767 
  900000      400  1.1367045e-11    0.016347606 
  910000      400  1.2095083e-11    0.016347569 
  920000      400  1.4140581e-11    0.016347504 
  930000      400  1.1797491e-11    0.016347457 
  940000      400  1.1970717e-11    0.016347411 
  950000      400  1.4184703e-11    0.016347349 
  960000      400  1.1413543e-11    0.016347292 
  970000      400  1.2275656e-11    0.016347247 
  980000      400  1.1674922e-11    0.016347194 
  990000      400  1.4950632e-11    0.016347128 
 1000000      400  1.0399899e-11    0.016347062 
 1010000      400  1.2446876e-11    0.016347005 
 1020000      400  1.0117628e-11    0.016346947 
 1030000      400  1.2067847e-11     0.01634689 
 1040000      400  1.0930954e-11    0.016346827 
 1050000      400  1.2237946e-11    0.016346773 
 1060000      400  1.0920858e-11    0.016346738 
 1070000      400  1.4282264e-11    0.016346702 
 1080000      400  1.1374812e-11    0.016346671 
 1090000      400  1.1125083e-11    0.016346634 
 1100000      400  1.2569538e-11    0.016346602 
 1110000      400  1.1025372e-11    0.016346566 
 1120000      400  1.2216724e-11     0.01634653 
 1130000      400  1.2066423e-11    0.016346471 
 1140000      400  1.2694872e-11    0.016346401 
 1150000      400  1.2737378e-11    0.016346326 
 1160000      400  1.3330946e-11    0.016346245 
 1170000      400   1.358861e-11    0.016346161 
 1180000      400  9.8724322e-12     0.01634609 
 1190000      400  1.1587276e-11    0.016345985 
 1200000      400  1.2794615e-11    0.016345879 
 1210000      400  1.3180534e-11    0.016345773 
 1220000      400  1.2429994e-11    0.016345835 
 1230000      400  1.2866437e-11    0.016345969 
 1240000      400  1.3086988e-11    0.016346107 
 1250000      400  1.2949075e-11    0.016346243 
 1260000      400  1.2369737e-11    0.016346369 
 1270000      400  1.2422293e-11    0.016346492 
 1280000      400  1.1336537e-11    0.016346614 
 1290000      400  1.0580827e-11    0.016346735 
 1300000      400  1.0938668e-11    0.016346854 
 1310000      400  1.1824289e-11    0.016346975 
 1320000      400  1.2654455e-11    0.016347099 
 1330000      400   1.253624e-11    0.016347223 
 1340000      400  1.1316046e-11    0.016347345 
 1350000      400   1.108054e-11    0.016347464 
 1360000      400  1.2481874e-11    0.016347586 
 1370000      400  1.2516237e-11    0.016347711 
 1380000      400  1.1163714e-11    0.016347832 
 1390000      400  1.1808041e-11     0.01634795 
 1400000      400  1.2893438e-11    0.016348075 
 1410000      400  1.1271922e-11    0.016348196 
 1420000      400  1.2362826e-11    0.016348311 
 1430000      400  1.2318069e-11    0.016348437 
 1440000      400  1.1413906e-11    0.016348552 
 1450000      400  1.2749937e-11    0.016348674 
 1460000      400  1.1195951e-11    0.016348793 
 1470000      400  1.2570904e-11    0.016348916 
 1480000      400  1.1208161e-11    0.016349037 
 1490000      400  1.2787497e-11     0.01634916 
 1500000      400  1.1377614e-11    0.016349278 
 1510000      400  1.2220943e-11    0.016349404 
 1520000      400  1.2049967e-11    0.016349518 
 1530000      400  1.1548337e-11    0.016349645 
 1540000      400  1.2692552e-11    0.016349763 
 1550000      400  1.1544035e-11    0.016349879 
 1560000      400   1.205189e-11    0.016350006 
 1570000      400  1.2863605e-11    0.016350126 
 1580000      400  1.2540064e-11    0.016350243 
 1590000      400  1.2002806e-11    0.016350374 
 1600000      400  1.2482015e-11    0.016350506 
 1610000      400   1.300877e-11    0.016350629 
 1620000      400  1.3255082e-11    0.016350744 
 1630000      400   1.243968e-11    0.016350863 
 1640000      400  1.1826734e-11    0.016351003 
 1650000      400  1.1733102e-11    0.016351148 
 1660000      400  1.1820683e-11    0.016351289 
 1670000      400  1.2153333e-11    0.016351431 
 1680000      400  1.3103406e-11    0.016351564 
 1690000      400  1.3463027e-11    0.016351686 
 1700000      400  1.2369602e-11    0.016351808 
 1710000      400  1.2224551e-11    0.016351926 
 1720000      400  1.2054446e-11    0.016352048 
 1730000      400  1.1822625e-11    0.016352174 
 1740000      400  1.1767931e-11    0.016352308 
 1750000      400  1.2680937e-11    0.016352439 
 1760000      400  1.2601079e-11    0.016352559 
 1770000      400  1.1778426e-11    0.016352687 
 1780000      400  1.1412868e-11    0.016352824 
 1790000      400  1.2509207e-11    0.016352954 
 1800000      400  1.2241281e-11    0.016353076 
 1810000      400  1.1387594e-11    0.016353217 
 1820000      400   1.232419e-11    0.016353364 
 1830000      400  9.9002012e-12    0.016353502 
 1840000      400  8.2400763e-12     0.01635366 
 1850000      400   9.853408e-12    0.016353813 
 1860000      400  9.2257521e-12    0.016353963 
 1870000      400  1.0176169e-11    0.016354122 
 1880000      400  9.3266595e-12    0.016354267 
 1890000      400  9.4016376e-12    0.016354426 
 1900000      400  9.3962061e-12    0.016354571 
 1910000      400  9.8451528e-12    0.016354729 
 1920000      400  9.2132218e-12    0.016354875 
 1930000      400   1.010617e-11    0.016355031 
 1940000      400  8.8502404e-12     0.01635518 
 1950000      400  1.0166246e-11     0.01635533 
 1960000      400  9.5312611e-12    0.016355487 
 1970000      400  9.1222886e-12    0.016355634 
 1980000      400  1.0196433e-11    0.016355786 
 1990000      400  1.0989646e-11    0.016355936 
 2000000      400  9.4258541e-12    0.016356072 
 2010000      400  1.1570429e-11     0.01635621 
 2020000      400  1.1430187e-11    0.016356354 
 2030000      400  1.0672716e-11    0.016356496 
 2040000      400  9.8972084e-12    0.016356635 
 2050000      400  1.0006692e-11    0.016356777 
 2060000      400  1.0717436e-11    0.016356921 
 2070000      400  1.1369099e-11    0.016357065 
 2080000      400  1.1357447e-11    0.016357208 
 2090000      400  1.0679611e-11    0.016357353 
 2100000      400  1.1015312e-11    0.016357496 
 2110000      400  1.1248849e-11    0.016357635 
 2120000      400  1.0904161e-11    0.016357772 
 2130000      400  1.1288595e-11    0.016357909 
 2140000      400  1.1393194e-11    0.016358046 
 2150000      400  1.1420204e-11    0.016358182 
 2160000      400   1.162721e-11     0.01635832 
 2170000      400  1.1871106e-11    0.016358458 
 2180000      400  1.2252686e-11    0.016358595 
 2190000      400  1.3049264e-10    0.016358542 
 2200000      400  1.5254922e-10    0.016358612 
 2210000      400  3.9816833e-11    0.016358776 
 2220000      400   7.980379e-11    0.016358844 
 2230000      400  7.1523377e-11    0.016358996 
 2240000      400  4.9994635e-11    0.016359118 
 2250000      400  4.7226755e-11    0.016359205 
 2260000      400  1.0872208e-10    0.016359318 
 2270000      400  2.8998152e-11    0.016359458 
 2280000      400  4.4197613e-11    0.016359595 
 2290000      400   8.048737e-12    0.016359717 
 2300000      400  1.6063391e-11    0.016359804 
 2310000      400  3.2996357e-11    0.016359917 
 2320000      400  4.3279572e-11    0.016360039 
 2330000      400  4.6127032e-11    0.016360168 
 2340000      400  4.6035631e-11    0.016360286 
 2350000      400  3.6944804e-11    0.016360407 
 2360000      400  3.1594371e-11    0.016360524 
 2370000      400  3.4772365e-11    0.016360638 
 2380000      400  3.6233921e-11     0.01636075 
 2390000      400  3.3854579e-11    0.016360865 
 2400000      400  3.6815992e-11    0.016360977 
 2410000      400  1.5231787e-11    0.016361089 
 2420000      400  1.0236775e-11    0.016361218 
 2430000      400  1.5644818e-11    0.016361329 
 2440000      400  1.0228325e-11    0.016361459 
 2450000      400   1.428951e-11    0.016361579 
 2460000      400  1.1588667e-11    0.016361708 
 2470000      400  1.2770918e-11    0.016361831 
 2480000      400  1.2585208e-11    0.016361958 
 2490000      400    1.20943e-11    0.016362087 
 2500000      400  1.1896251e-11    0.016362236 
 2510000      400  1.2580567e-11    0.016362381 
 2520000      400  1.1708486e-11    0.016362529 
 2530000      400   1.222629e-11    0.016362674 
 2540000      400  1.2085224e-11    0.016362823 
 2550000      400  1.1662518e-11    0.016362968 
 2560000      400  1.2370866e-11    0.016363115 
 2570000      400  1.1695349e-11    0.016363262 
 2580000      400  1.2207311e-11    0.016363401 
 2590000      400  1.2777833e-11    0.016363535 
 2600000      400   1.203407e-11    0.016363671 
 2610000      400  1.1777508e-11    0.016363804 
 2620000      400  1.2444722e-11    0.016363941 
 2630000      400  1.2048714e-11    0.016364077 
 2640000      400  1.1658462e-11    0.016364213 
 2650000      400   1.174598e-11    0.016364349 
 2660000      400  1.2167792e-11    0.016364487 
 2670000      400  1.2037083e-11    0.016364624 
 2680000      400  1.1572161e-11    0.016364762 
 2690000      400  1.1550429e-11    0.016364898 
 2700000      400  1.1649847e-11    0.016365036 
 2710000      400  1.2015393e-11    0.016365174 
 2720000      400  1.1920095e-11    0.016365312 
 2730000      400   1.155886e-11    0.016365451 
 2740000      400  1.0873763e-11    0.016365596 
 2750000      400   1.061338e-11    0.016365745 
 2760000      400  1.0291079e-11    0.016365891 
 2770000      400  1.0181174e-11    0.016366038 
 2780000      400  9.6343537e-12    0.016366188 
 2790000      400  9.8042006e-12    0.016366339 
 2800000      400  9.9058564e-12     0.01636649 
 2810000      400  9.7528031e-12    0.016366641 
 2820000      400  9.6768884e-12    0.016366792 
 2830000      400  9.8707396e-12    0.016366944 
 2840000      400  1.0193353e-11    0.016367094 
 2850000      400  1.0392144e-11    0.016367245 
 2860000      400  1.0423496e-11    0.016367395 
 2870000      400  1.0219396e-11    0.016367547 
 2880000      400   9.728743e-12    0.016367698 
 2890000      400  9.3938349e-12    0.016367849 
 2900000      400  9.8094263e-12       0.016368 
 2910000      400  1.0642906e-11     0.01636815 
 2920000      400  1.0375988e-11    0.016368299 
 2930000      400  9.1331104e-12    0.016368449 
 2940000      400  9.1489185e-12      0.0163686 
 2950000      400  1.0663585e-11    0.016368751 
 2960000      400  1.0641991e-11    0.016368901 
 2970000      400  8.9573806e-12    0.016369052 
 2980000      400  9.0724283e-12    0.016369204 
 2990000      400  1.0669089e-11    0.016369355 
 3000000      400  9.9219827e-12    0.016369507 
 3010000      400  9.8530488e-12     0.01636966 
 3020000      400   9.509222e-12    0.016369813 
 3030000      400  1.3557971e-11    0.016369965 
 3040000      400  1.1189869e-11    0.016370068 
 3050000      400  3.7442673e-10    0.016370092 
 3060000      400  2.3536911e-11    0.016369951 
 3070000      400  3.5242033e-11    0.016369974 
 3080000      400  3.5933619e-11     0.01636999 
 3090000      400   2.963254e-11    0.016370005 
 3100000      400   2.079309e-11    0.016370036 
 3110000      400  2.1507216e-11    0.016370068 
 3120000      400  1.8344576e-11    0.016370122 
 3130000      400   2.008784e-11    0.016370188 
 3140000      400  2.0261644e-11    0.016370257 
 3150000      400  1.4826498e-11    0.016370354 
 3160000      400  1.0032464e-11    0.016370495 
 3170000      400  9.3688923e-12    0.016370642 
 3180000      400  1.0431316e-11     0.01637079 
 3190000      400  1.0807982e-11    0.016370938 
 3200000      400   1.114115e-11    0.016371086 
 3210000      400  1.0992486e-11    0.016371234 
 3220000      400   1.091632e-11    0.016371382 
 3230000      400  1.1332454e-11    0.016371539 
 3240000      400   1.172842e-11    0.016371698 
 3250000      400  1.1910768e-11    0.016371852 
 3260000      400  1.1350176e-11    0.016372009 
 3270000      400  1.1051243e-11    0.016372167 
 3280000      400  1.0783533e-11    0.016372325 
 3290000      400  1.0886132e-11    0.016372488 
 3300000      400  1.0845185e-11    0.016372652 
 3310000      400  1.0421255e-11    0.016372819 
 3320000      400  7.6290664e-12    0.016372995 
 3330000      400   7.257499e-12    0.016373171 
 3340000      400  8.0202785e-12    0.016373347 
 3350000      400  9.2524578e-12    0.016373525 
 3360000      400   9.930309e-12    0.016373697 
 3370000      400  9.1113692e-12    0.016373868 
 3380000      400  7.9997722e-12     0.01637404 
 3390000      400  7.3168242e-12    0.016374212 
 3400000      400  9.0200765e-12    0.016374382 
 3410000      400  9.4905715e-12    0.016374553 
 3420000      400  8.5004405e-12    0.016374722 
 3430000      400  8.2403856e-12    0.016374889 
 3440000      400  8.4919638e-12    0.016375057 
 3450000      400   9.082003e-12    0.016375226 
 3460000      400  8.8056283e-12    0.016375393 
 3470000      400  8.3098126e-12    0.016375559 
 3480000      400  8.5845594e-12    0.016375724 
 3490000      400  9.1539716e-12    0.016375889 
 3500000      400  1.0667461e-11    0.016376039 
 3510000      400  1.0659785e-11    0.016376191 
 3520000      400  9.2983916e-12    0.016376341 
 3530000      400  1.0629855e-11    0.016376492 
 3540000      400  1.0151458e-11    0.016376644 
 3550000      400  2.3438742e-11    0.016376755 
 3560000      400  3.2632217e-11      0.0163768 
 3570000      400  4.0339007e-11    0.016376825 
 3580000      400  1.0455013e-10    0.016376818 
 3590000      400  4.4505238e-11    0.016376774 
 3600000      400  4.0260943e-11    0.016376779 
 3610000      400  3.6021113e-11    0.016376805 
 3620000      400  3.3689706e-11    0.016376839 
 3630000      400  1.6954713e-10    0.016376645 
 3640000      400  2.3333306e-11    0.016376693 
 3650000      400  1.6425835e-11     0.01637673 
 3660000      400   2.401473e-11    0.016376806 
 3670000      400  3.3427843e-08    0.016373823 
 3680000      400  1.0432503e-08    0.016373814 
 3690000      400  4.9959218e-09    0.016374056 
 3700000      400  2.4633828e-09     0.01637419 
 3710000      400  1.1392682e-09    0.016374322 
 3720000      400  4.5501463e-10    0.016374433 
 3730000      400  1.4910511e-10    0.016374535 
 3740000      400  2.5574704e-11    0.016374634 
 3750000      400  1.0592457e-11    0.016374727 
 3760000      400  2.4211059e-11    0.016374823 
 3770000      400   9.988927e-12    0.016374911 
 3780000      400  1.6263904e-11    0.016375006 
 3790000      400  1.6892984e-11    0.016375091 
 3800000      400  1.3114419e-11    0.016375176 
 3810000      400  1.6267612e-11    0.016375257 
 3820000      400  1.7562634e-11    0.016375347 
 3830000      400  1.6881314e-11    0.016375474 
 3840000      400  1.6433658e-11    0.016375604 
 3850000      400  1.4576488e-11     0.01637573 
 3860000      400     1.6929e-11    0.016375856 
 3870000      400   1.531253e-11    0.016375981 
 3880000      400  1.6414389e-11    0.016376102 
 3890000      400  2.0472592e-11    0.016376206 
 3900000      400  1.7867283e-11    0.016376289 
 3910000      400  2.2463295e-11    0.016376361 
 3920000      400  2.6360297e-11    0.016376431 
 3930000      400  2.1366148e-11    0.016376499 
 3940000      400  2.1222816e-11    0.016376567 
 3950000      400  2.7379496e-11    0.016376624 
 3960000      400  2.4699405e-11    0.016376681 
 3970000      400  2.2163062e-11     0.01637674 
 3980000      400  5.0003631e-11    0.016376763 
 3990000      400  1.1126721e-10    0.016376645 
 4000000      400  7.2173975e-10    0.016376152 
 4010000      400  9.7280669e-11    0.016376249 
 4020000      400   2.652903e-11    0.016376278 
 4030000      400  1.7505073e-11     0.01637633 
 4040000      400  2.0454343e-11    0.016376385 
 4050000      400  1.9394218e-11    0.016376474 
 4060000      400   1.735308e-11    0.016376558 
 4070000      400  1.4830853e-11    0.016376651 
 4080000      400  1.8772155e-11    0.016376745 
 4090000      400  1.9544937e-11    0.016376843 
 4100000      400  1.9872652e-11    0.016376939 
 4110000      400  1.8764682e-11    0.016377038 
 4120000      400  1.8965642e-11    0.016377137 
 4130000      400  1.8770072e-11    0.016377239 
 4140000      400  1.7532738e-11    0.016377347 
 4150000      400  1.7698121e-11    0.016377457 
 4160000      400    1.93952e-11    0.016377572 
 4170000      400  2.0872689e-11    0.016377674 
 4180000      400  9.4140104e-12    0.016377715 
 4190000      400  2.6466529e-11    0.016377801 
 4200000      400  3.0901942e-11     0.01637787 
 4210000      400  2.0870483e-11    0.016377938 
 4220000      400  1.9042718e-11    0.016378017 
 4230000      400  2.0468722e-11    0.016378101 
 4240000      400  2.0701231e-11     0.01637817 
 4250000      400  2.2495899e-11    0.016378241 
 4260000      400  2.2370037e-11    0.016378316 
 4270000      400  2.4670138e-11    0.016378396 
 4280000      400  2.5084391e-11     0.01637846 
 4290000      400  2.3669098e-11    0.016378529 
 4300000      400  2.3883155e-11    0.016378597 
 4310000      400  2.3659634e-11     0.01637866 
 4320000      400  2.2262612e-11    0.016378724 
 4330000      400  2.0524435e-11    0.016378817 
 4340000      400  1.9421281e-11    0.016378917 
 4350000      400  1.9332746e-11    0.016379018 
 4360000      400   1.973331e-11    0.016379121 
 4370000      400  2.0105311e-11    0.016379226 
 4380000      400  1.9574043e-11    0.016379331 
 4390000      400  1.9190717e-11    0.016379437 
 4400000      400  1.9401502e-11    0.016379543 
 4410000      400  1.9624113e-11    0.016379648 
 4420000      400  1.9510034e-11    0.016379752 
 4430000      400   1.931673e-11    0.016379858 
 4440000      400   1.918202e-11    0.016379965 
 4450000      400  1.8619847e-11    0.016380076 
 4460000      400  1.8423988e-11    0.016380191 
 4470000      400  1.7829545e-11    0.016380307 
 4480000      400  1.8317323e-11    0.016380426 
 4490000      400  1.7615272e-11    0.016380546 
 4500000      400  1.6954166e-11    0.016380674 
 4510000      400  1.7307991e-11    0.016380803 
 4520000      400  1.5411613e-11    0.016380945 
 4530000      400  1.4950432e-11    0.016381091 
 4540000      400   2.067575e-11     0.01638123 
 4550000      400  1.4547764e-11    0.016381223 
 4560000      400  1.0713424e-11    0.016381368 
 4570000      400  1.1905827e-11    0.016381542 
 4580000      400  1.9114719e-11    0.016381711 
 4590000      400  3.0616074e-11    0.016381858 
 4600000      400  1.4630811e-11     0.01638201 
 4610000      400  1.0248767e-11     0.01638217 
 4620000      400   4.929802e-12     0.01638235 
 4630000      400  9.4973928e-12    0.016382547 
 4640000      400  1.3966713e-11    0.016382745 
 4650000      400  1.7224618e-11    0.016382931 
 4660000      400  9.3419213e-12    0.016383101 
 4670000      400    9.14674e-12    0.016383253 
 4680000      400  9.9996091e-12     0.01638343 
 4690000      400   7.965945e-12    0.016383612 
 4700000      400   1.216664e-11     0.01638381 
 4710000      400  7.5692106e-12       0.016384 
 4720000      400  1.3559725e-11    0.016384178 
 4730000      400   8.185415e-12    0.016384355 
 4740000      400  1.2757558e-11    0.016384533 
 4750000      400  8.7210299e-12    0.016384711 
 4760000      400  1.2162065e-11    0.016384889 
 4770000      400  9.1882311e-12    0.016385067 
 4780000      400   1.169509e-11    0.016385245 
 4790000      400  9.8374335e-12    0.016385418 
 4800000      400   1.224689e-11    0.016385587 
 4810000      400  1.0262373e-11    0.016385757 
 4820000      400  1.2005006e-11    0.016385923 
 4830000      400  7.5175794e-10    0.016386094 
 4840000      400  5.1600672e-12     0.01638614 
 4850000      400  5.6244767e-12    0.016386366 
 4860000      400  1.2130151e-11    0.016386572 
 4870000      400  9.9387795e-12    0.016386751 
 4880000      400  9.9844773e-12    0.016386935 
 4890000      400  1.0577411e-11    0.016387119 
 4900000      400  1.1188417e-11    0.016387303 
 4910000      400  1.1518446e-11    0.016387486 
 4920000      400   1.176971e-11    0.016387669 
 4930000      400  1.1412036e-11    0.016387862 
 4940000      400  1.1423397e-11    0.016388053 
 4950000      400  1.1841053e-11    0.016388233 
 4960000      400   1.071089e-11    0.016388415 
 4970000      400  1.0921839e-11    0.016388597 
 4980000      400  1.1741475e-11    0.016388775 
 4990000      400  1.2133953e-11    0.016388955 
 5000000      400  1.1450695e-11    0.016389131 
 5010000      400  1.1003452e-11    0.016389307 
 5020000      400  1.1267066e-11    0.016389484 
 5030000      400  1.1501482e-11    0.016389662 
 5040000      400  1.1643739e-11    0.016389845 
 5050000      400  1.1379801e-11    0.016390029 
 5060000      400  1.1333233e-11    0.016390213 
 5070000      400  1.1327034e-11    0.016390399 
 5080000      400  1.1468827e-11    0.016390584 
 5090000      400  1.3084852e-11    0.016390766 
 5100000      400  1.2773705e-11    0.016390943 
 5110000      400  1.2123466e-11    0.016391138 
 5120000      400  1.2097644e-11    0.016391334 
 5130000      400  1.2709843e-11    0.016391527 
 5140000      400  1.3133857e-11    0.016391722 
 5150000      400  1.2897872e-11    0.016391914 
 5160000      400  1.2895046e-11    0.016392099 
 5170000      400  1.9031174e-11    0.016392258 
 5180000      400  1.6863397e-11    0.016392411 
 5190000      400  1.2036924e-11    0.016392561 
 5200000      400  1.0283303e-11     0.01639271 
 5210000      400  1.2236162e-11    0.016392865 
 5220000      400  1.4800922e-11    0.016393023 
 5230000      400  1.7910341e-11    0.016393182 
 5240000      400  1.6672983e-11    0.016393341 
 5250000      400  1.7793747e-11    0.016393497 
 5260000      400  1.6319481e-11    0.016393654 
 5270000      400  1.6357177e-11    0.016393809 
 5280000      400  2.2117154e-11     0.01639391 
 5290000      400  1.2634778e-11    0.016394083 
 5300000      400  1.4761102e-11    0.016394248 
 5310000      400  1.3999616e-11    0.016394412 
 5320000      400  1.5910253e-11    0.016394571 
 5330000      400  1.5943998e-11    0.016394729 
 5340000      400    1.50225e-11    0.016394897 
 5350000      400  1.5299266e-11    0.016395064 
 5360000      400  1.6041867e-11    0.016395225 
 5370000      400  1.6345249e-11    0.016395372 
 5380000      400  1.7040477e-11    0.016395519 
 5390000      400  1.6890893e-11    0.016395666 
 5400000      400  1.6557954e-11    0.016395811 
 5410000      400  1.6370719e-11    0.016395955 
 5420000      400   1.882437e-11      0.0163961 
 5430000      400  1.5289897e-11    0.016396248 
 5440000      400  1.4938389e-11    0.016396402 
 5450000      400  1.5181516e-11    0.016396548 
 5460000      400  1.4860402e-11    0.016396694 
 5470000      400  1.4625279e-11     0.01639684 
 5480000      400  1.3874505e-11    0.016396987 
 5490000      400  5.3628731e-09    0.016395549 
 5500000      400  4.5316471e-09    0.016395592 
 5510000      400  3.8288332e-09    0.016395566 
 5520000      400  2.5772889e-09      0.0163956 
 5530000      400  1.2942102e-09    0.016395656 
 5540000      400  4.5493668e-10    0.016395729 
 5550000      400  7.5967649e-11    0.016395817 
 5560000      400  1.3720216e-11    0.016395903 
 5570000      400  9.7096724e-13    0.016396012 
 5580000      400  8.9092117e-13    0.016396087 
 5590000      400  1.3139288e-11    0.016396239 
 5600000      400  8.7252305e-11    0.016398058 
 5610000      400  9.2387657e-13    0.016398683 
 5620000      400  5.7856028e-12    0.016399309 
 5630000      400  9.0445254e-13     0.01639994 
 5640000      400  4.0666077e-12    0.016400553 
 5650000      400  8.1368654e-13    0.016401098 
 5660000      400  3.3024246e-12     0.01640148 
 5670000      400  9.5352733e-13    0.016401801 
 5680000      400  3.0057477e-12    0.016402102 
 5690000      400  1.1474725e-12    0.016402383 
 5700000      400  2.6945179e-12    0.016402655 
 5710000      400  1.4883734e-12    0.016402912 
 5720000      400   2.100635e-12    0.016403163 
 5730000      400  2.4849286e-12    0.016403396 
 5740000      400  2.1878996e-12    0.016403623 
 5750000      400  2.4104264e-12    0.016403842 
 5760000      400  2.7487517e-12    0.016404038 
 5770000      400  3.2483349e-12    0.016404223 
 5780000      400  3.2405397e-12    0.016404409 
 5790000      400  2.6579277e-12    0.016404604 
 5800000      400  2.5937294e-12    0.016404794 
 5810000      400  2.8333315e-12    0.016404976 
 5820000      400  3.1926248e-12    0.016405158 
 5830000      400   2.759833e-12    0.016405338 
 5840000      400  3.2336341e-12    0.016405517 
 5850000      400   2.882543e-12    0.016405694 
 5860000      400  3.9068474e-12    0.016405867 
 5870000      400  3.4664461e-12    0.016406034 
 5880000      400  4.0149522e-12      0.0164062 
 5890000      400  3.8693086e-12    0.016406363 
 5900000      400  3.7063956e-12    0.016406528 
 5910000      400  3.9200039e-12    0.016406691 
 5920000      400  3.6896289e-12    0.016406854 
 5930000      400  3.8847989e-12    0.016407017 
 5940000      400  4.4729159e-12    0.016407175 
 5950000      400  4.7383261e-12    0.016407327 
 5960000      400  4.9871266e-12    0.016407472 
 5970000      400  5.0506264e-12    0.016407618 
 5980000      400  6.2514631e-12    0.016407757 
 5990000      400   6.680021e-12    0.016407892 
 6000000      400  5.7677393e-12    0.016408028 
 6010000      400  6.3347972e-12    0.016408164 
 6020000      400  6.3893628e-12    0.016408297 
 6030000      400  5.7578977e-12    0.016408433 
 6040000      400  6.1961673e-12    0.016408568 
 6050000      400  6.0169371e-12    0.016408703 
 6060000      400  5.6878977e-12    0.016408838 
 6070000      400   6.292433e-12    0.016408972 
 6080000      400  6.0952888e-12    0.016409105 
 6090000      400  5.6666397e-12    0.016409239 
 6100000      400  5.8551852e-12    0.016409371 
 6110000      400  6.6578061e-12      0.0164095 
 6120000      400  6.3286313e-12    0.016409629 
 6130000      400  8.0176972e-12    0.016409757 
 6140000      400  8.0232777e-12    0.016409896 
 6150000      400  9.1952347e-12    0.016410031 
 6160000      400   9.677117e-12     0.01641016 
 6170000      400  8.9654828e-12    0.016410287 
 6180000      400  9.1415151e-12    0.016410415 
 6190000      400  1.0615763e-11    0.016410539 
 6200000      400  9.7611326e-12    0.016410658 
 6210000      400  1.1138885e-11    0.016410766 
 6220000      400  1.2428699e-11     0.01641087 
 6230000      400  1.4548806e-11    0.016410966 
 6240000      400   1.271574e-11    0.016411059 
 6250000      400  1.1229993e-11    0.016411153 
 6260000      400  1.0934304e-11    0.016411248 
 6270000      400  1.0519658e-11    0.016411342 
 6280000      400  1.0460542e-11    0.016411438 
 6290000      400  1.0549811e-11    0.016411536 
 6300000      400  1.0851095e-11    0.016411636 
 6310000      400  1.1086579e-11    0.016411737 
 6320000      400  1.1214166e-11     0.01641184 
 6330000      400  1.0998309e-11    0.016411938 
 6340000      400  8.9279922e-12    0.016412047 
 6350000      400   7.027233e-12    0.016412178 
 6360000      400  5.4028489e-12    0.016412323 
 6370000      400  6.3170957e-12     0.01641246 
 6380000      400  3.7119685e-12    0.016412616 
 6390000      400  4.5298654e-12    0.016412784 
 6400000      400  5.0039455e-12    0.016412959 
 6410000      400  2.7054027e-12    0.016413221 
 6420000      400  1.3458025e-12    0.016413498 
 6430000      400   1.088243e-12    0.016413807 
 6440000      400  8.8770152e-13     0.01641414 
 6450000      400  8.5381849e-13    0.016414491 
 6460000      400  9.4895789e-13    0.016414864 
 6470000      400   1.015244e-12    0.016415266 
 6480000      400  1.2162604e-12    0.016415663 
 6490000      400  1.3312174e-12    0.016416057 
 6500000      400  1.4756386e-12    0.016416471 
 6510000      400  1.6589931e-12    0.016416876 
 6520000      400  1.5139622e-12    0.016417273 
 6530000      400  1.4781593e-12    0.016417661 
 6540000      400  1.6392331e-12    0.016418041 
 6550000      400  1.3757112e-12    0.016418387 
 6560000      400  1.6279275e-12    0.016418705 
 6570000      400  1.6344271e-12    0.016419024 
 6580000      400  1.6411803e-12    0.016419293 
 6590000      400  4.1491222e-12    0.016419337 
 6600000      400  2.2881311e-12    0.016419318 
 6610000      400  2.1457614e-12    0.016419285 
 6620000      400  2.4750821e-12    0.016419243 
 6630000      400  2.8563638e-12    0.016419188 
 6640000      400  2.8972664e-12    0.016419122 
 6650000      400  2.7352773e-12    0.016419045 
 6660000      400  2.5226608e-12     0.01641896 
 6670000      400  2.3458477e-12    0.016418868 
 6680000      400  2.1823769e-12     0.01641877 
 6690000      400  4.5123356e-12    0.016418326 
 6700000      400  9.6141131e-12    0.016418004 
 6710000      400  7.6602644e-12     0.01641776 
 6720000      400  5.4233023e-12    0.016417477 
 6730000      400  3.8035497e-12    0.016417183 
 6740000      400  2.7436278e-12    0.016416841 
 6750000      400  3.3100279e-12    0.016416477 
 6760000      400  3.5671163e-12    0.016416096 
 6770000      400  3.4075843e-12    0.016415697 
 6780000      400   2.501801e-11    0.016415272 
 6790000      400   2.370143e-12    0.016414787 
 6800000      400  1.2200051e-10    0.016414212 
 6810000      400  4.3607111e-11     0.01641348 
 6820000      400  6.1305457e-11    0.016412745 
 6830000      400  1.9303175e-10    0.016411787 
 6840000      400   2.637806e-10    0.016410704 
 6850000      400  1.8866915e-10    0.016409614 
 6860000      400  2.3586112e-10    0.016408564 
 6870000      400  2.4012645e-10    0.016407534 
 6880000      400  2.1615916e-10     0.01640652 
 6890000      400  2.2687551e-10    0.016405575 
 6900000      400  1.0344672e-09    0.016404185 
 6910000      400  7.5191633e-10    0.016402885 
 6920000      400   2.993763e-10    0.016400175 
 6930000      400  1.6226141e-11    0.016398599 
 6940000      400  6.0963224e-10    0.016396652 
 6950000      400  2.9160094e-09    0.016395635 
 6960000      400  5.0082793e-07    0.016352814 
 6970000      400  5.5829305e-09    0.016350716 
 6980000      400  3.9132104e-08    0.016352067 
 6990000      400  9.0797616e-11    0.016352367 
 7000000      400  7.2898589e-09    0.016352144 
 7010000      400   2.102346e-10    0.016352093 
 7020000      400  8.6924545e-10    0.016352271 
 7030000      400  3.9305511e-11    0.016352427 
 7040000      400  2.4124779e-10     0.01635248 
 7050000      400  6.9527332e-11    0.016352529 
 7060000      400  4.1436864e-12    0.016352621 
 7070000      400  3.2540231e-12    0.016352716 
 7080000      400  1.5571032e-11    0.016352798 
 7090000      400   2.218968e-11    0.016352876 
 7100000      400  1.5075893e-11    0.016352955 
 7110000      400  1.0065431e-11    0.016353037 
 7120000      400  9.6431096e-12     0.01635304 
 7130000      400  1.0544486e-11    0.016353042 
 7140000      400  1.0282181e-11    0.016353068 
 7150000      400   1.048587e-11    0.016353124 
 7160000      400  1.0455924e-11    0.016353178 
 7170000      400  1.0616586e-11    0.016353233 
 7180000      400  1.0958842e-11    0.016353286 
 7190000      400  1.1079526e-11    0.016353342 
 7200000      400  1.0413104e-11    0.016353396 
 7210000      400   7.416532e-12     0.01635346 
 7220000      400  9.4401079e-12    0.016353544 
 7230000      400  6.9215639e-12    0.016353638 
 7240000      400  7.7422351e-12    0.016353733 
 7250000      400  8.3797056e-12    0.016353824 
 7260000      400  7.3262633e-12    0.016353915 
 7270000      400  7.9161568e-12    0.016354006 
 7280000      400  7.9707437e-12    0.016354097 
 7290000      400  7.6613171e-12     0.01635419 
 7300000      400  7.6419107e-12    0.016354289 
 7310000      400  7.6908538e-12     0.01635439 
 7320000      400  7.7931759e-12    0.016354492 
 7330000      400  7.8301958e-12    0.016354593 
 7340000      400  7.8558611e-12    0.016354693 
 7350000      400  7.9381302e-12    0.016354795 
 7360000      400   7.719273e-12    0.016354913 
 7370000      400   7.480464e-12    0.016355061 
 7380000      400  7.7034695e-12    0.016355209 
 7390000      400  7.9379804e-12    0.016355355 
 7400000      400  7.8214194e-12    0.016355501 
 7410000      400    8.03467e-12    0.016355646 
 7420000      400  7.1534854e-12    0.016355743 
 7430000      400  7.3623941e-12    0.016355816 
 7440000      400  5.6566469e-12    0.016355902 
 7450000      400  5.9856795e-12    0.016355997 
 7460000      400  5.7242629e-12    0.016356092 
 7470000      400   5.645833e-12    0.016356184 
 7480000      400  5.5648503e-12    0.016356275 
 7490000      400  5.7129896e-12    0.016356365 
 7500000      400  5.8520095e-12    0.016356454 
 7510000      400  5.8883963e-12    0.016356543 
 7520000      400  5.9273407e-12    0.016356631 
 7530000      400  6.0219371e-12    0.016356718 
 7540000      400  6.1144286e-12    0.016356805 
 7550000      400  5.7738915e-12    0.016356889 
 7560000      400  5.4563544e-12    0.016356976 
 7570000      400  5.1232539e-12    0.016357073 
 7580000      400  4.8610172e-12     0.01635717 
 7590000      400  4.8874253e-12    0.016357266 
 7600000      400  5.0943842e-12    0.016357358 
 7610000      400  4.8644615e-12    0.016357446 
 7620000      400  4.6525066e-12    0.016357536 
 7630000      400  4.7461864e-12    0.016357625 
 7640000      400  5.0238224e-12    0.016357713 
 7650000      400  4.9846595e-12    0.016357802 
 7660000      400  4.9344402e-12    0.016357898 
 7670000      400  4.9745422e-12    0.016357994 
 7680000      400  4.9794587e-12    0.016358089 
 7690000      400  4.8173305e-12    0.016358157 
 7700000      400  5.0926351e-12    0.016358219 
 7710000      400  5.1435403e-12    0.016358283 
 7720000      400  5.0055232e-12    0.016358349 
 7730000      400  4.9317582e-12    0.016358415 
 7740000      400  5.0117763e-12    0.016358481 
 7750000      400    5.08671e-12    0.016358547 
 7760000      400  4.8712438e-12    0.016358611 
 7770000      400  4.7391809e-12    0.016358674 
 7780000      400  4.8001827e-12    0.016358737 
 7790000      400   4.861659e-12      0.0163588 
 7800000      400  4.9260524e-12    0.016358862 
 7810000      400  4.8653776e-12    0.016358925 
 7820000      400  4.8324427e-12    0.016358987 
 7830000      400   4.825515e-12    0.016359049 
 7840000      400  4.8502203e-12    0.016359111 
 7850000      400  4.8624256e-12    0.016359174 
 7860000      400  5.0502427e-12    0.016359235 
 7870000      400  5.3244485e-12    0.016359294 
 7880000      400  5.4963997e-12    0.016359349 
 7890000      400  5.5934383e-12    0.016359402 
 7900000      400  5.6849639e-12    0.016359455 
 7910000      400  6.1505819e-12    0.016359505 
 7920000      400  6.2494971e-12    0.016359556 
 7930000      400   6.258526e-12    0.016359606 
 7940000      400  6.4223359e-12    0.016359654 
 7950000      400  6.3570609e-12    0.016359701 
 7960000      400  6.3362829e-12    0.016359749 
 7970000      400  6.2629872e-12    0.016359796 
 7980000      400     6.2947e-12    0.016359843 
 7990000      400  6.3328262e-12    0.016359889 
 8000000      400  6.3182773e-12    0.016359936 
 8010000      400  6.3306086e-12    0.016359982 
 8020000      400  6.3017382e-12    0.016360027 
 8030000      400   6.354314e-12    0.016360072 
 8040000      400  6.2529169e-12    0.016360115 
 8050000      400  4.7790264e-12    0.016360158 
 8060000      400  5.6836566e-12    0.016360204 
 8070000      400  5.3424934e-12    0.016360251 
 8080000      400  4.7796263e-12    0.016360297 
 8090000      400  5.2185945e-12    0.016360341 
 8100000      400  5.4727055e-12    0.016360384 
 8110000      400  4.9964472e-12    0.016360426 
 8120000      400  4.7535201e-12    0.016360467 
 8130000      400  4.9071694e-12    0.016360508 
 8140000      400  4.9788699e-12    0.016360546 
 8150000      400  4.7644767e-12    0.016360572 
 8160000      400   4.373173e-12    0.016360595 
 8170000      400  4.9743852e-12    0.016360619 
 8180000      400  4.6511596e-12    0.016360643 
 8190000      400  3.6592215e-12    0.016360707 
 8200000      400  4.5400891e-12     0.01636081 
 8210000      400   3.817979e-12    0.016360912 
 8220000      400  4.3532709e-12    0.016361015 
 8230000      400  3.9964384e-12    0.016361117 
 8240000      400  4.1991913e-12     0.01636122 
 8250000      400  4.5995954e-12    0.016361331 
 8260000      400  4.3642022e-12    0.016361442 
 8270000      400  4.4295383e-12    0.016361552 
 8280000      400  4.3677391e-12    0.016361663 
 8290000      400  4.3415906e-12    0.016361773 
 8300000      400  4.4815089e-12    0.016361883 
 8310000      400  4.5035704e-12    0.016361992 
 8320000      400  4.5736209e-12    0.016362101 
 8330000      400  4.5572464e-12     0.01636221 
 8340000      400  4.4271645e-12     0.01636232 
 8350000      400  4.5660565e-12    0.016362431 
 8360000      400  4.4980102e-12    0.016362543 
 8370000      400  6.1587676e-12    0.016362649 
 8380000      400  5.0351669e-12    0.016362707 
 8390000      400  5.3682253e-12    0.016362769 
 8400000      400  5.4715955e-12    0.016362834 
 8410000      400  4.2158251e-12     0.01636291 
 8420000      400  4.4206722e-12     0.01636299 
 8430000      400  4.5785027e-12    0.016363074 
 8440000      400  4.3152023e-12    0.016363159 
 8450000      400   4.543756e-12    0.016363245 
 8460000      400  4.3734263e-12    0.016363332 
 8470000      400  3.6655763e-12    0.016363421 
 8480000      400   4.166609e-12    0.016363516 
 8490000      400  3.2796146e-12    0.016363614 
 8500000      400  3.9744165e-12    0.016363714 
 8510000      400  3.5041666e-12    0.016363817 
 8520000      400  3.9867015e-12    0.016363921 
 8530000      400  3.6809497e-12    0.016364028 
 8540000      400  3.7624052e-12    0.016364138 
 8550000      400  3.4549075e-12    0.016364251 
 8560000      400  3.7676595e-12    0.016364365 
 8570000      400  3.9468799e-12    0.016364473 
 8580000      400  3.6382009e-12    0.016364577 
 8590000      400  3.8122972e-12    0.016364683 
 8600000      400  4.0197586e-12    0.016364794 
 8610000      400  3.5143974e-12    0.016364911 
 8620000      400  3.8832625e-12    0.016365033 
 8630000      400  2.4539327e-12    0.016365165 
 8640000      400  3.3084228e-12    0.016365308 
 8650000      400  1.7979507e-12    0.016365419 
 8660000      400  3.2700712e-12    0.016365464 
 8670000      400  4.6144492e-12    0.016365515 
 8680000      400   2.847174e-12    0.016365607 
 8690000      400  2.0435821e-12    0.016365725 
 8700000      400  2.2579674e-12    0.016365841 
 8710000      400  2.8634682e-12    0.016365956 
 8720000      400  2.9739738e-12    0.016366069 
 8730000      400  2.4912358e-12     0.01636618 
 8740000      400  2.7130062e-12    0.016366289 
 8750000      400  2.3260662e-12    0.016366397 
 8760000      400  2.5904476e-12    0.016366509 
 8770000      400  2.5581154e-12    0.016366621 
 8780000      400  2.7793228e-12    0.016366727 
 8790000      400  2.2262181e-12    0.016366844 
 8800000      400  2.2472789e-12    0.016366959 
 8810000      400  2.0050061e-12    0.016367071 
 8820000      400  2.6273982e-12    0.016367181 
 8830000      400  2.9299321e-12    0.016367291 
 8840000      400  2.3376434e-12      0.0163674 
 8850000      400  2.0822883e-12    0.016367507 
 8860000      400  2.3993804e-12    0.016367608 
 8870000      400  2.6261401e-12    0.016367702 
 8880000      400  2.6370398e-12    0.016367795 
 8890000      400  2.4235498e-12    0.016367887 
 8900000      400  2.3556032e-12    0.016367978 
 8910000      400  2.6117934e-12    0.016368064 
 8920000      400  2.6298968e-12     0.01636815 
 8930000      400  3.0447428e-12    0.016368235 
 8940000      400  2.0599838e-12    0.016368319 
 8950000      400   1.860355e-12    0.016368402 
 8960000      400  2.4298031e-12    0.016368483 
 8970000      400  2.2048912e-12    0.016368562 
 8980000      400  2.6562298e-12    0.016368639 
 8990000      400   2.160774e-12    0.016368713 
 9000000      400   2.462293e-12    0.016368781 
 9010000      400   2.211487e-12    0.016368847 
 9020000      400    2.77978e-12    0.016368913 
 9030000      400  2.4036552e-12    0.016368979 
 9040000      400  2.3348568e-12    0.016369045 
 9050000      400  2.5415968e-12    0.016369109 
 9060000      400  2.4086837e-12    0.016369173 
 9070000      400  2.2597137e-12    0.016369236 
 9080000      400  2.3282424e-12    0.016369298 
 9090000      400  1.2091181e-10     0.01636936 
 9100000      400  1.3655248e-11    0.016369458 
 9110000      400  1.0342633e-11    0.016369488 
 9120000      400  1.5099792e-12    0.016369535 
 9130000      400  3.9151845e-12    0.016369583 
 9140000      400  5.4150279e-12    0.016369633 
 9150000      400  2.9918972e-12    0.016369682 
 9160000      400   1.529243e-12    0.016369732 
 9170000      400  1.9941791e-12    0.016369781 
 9180000      400  3.2894251e-12    0.016369828 
 9190000      400  3.3153099e-12    0.016369874 
 9200000      400  2.3415118e-12    0.016369918 
 9210000      400  1.8303417e-12    0.016369963 
 9220000      400   2.122932e-12    0.016370012 
 9230000      400  2.3561449e-12    0.016370062 
 9240000      400  2.4679293e-12     0.01637011 
 9250000      400  2.3759598e-12    0.016370158 
 9260000      400  2.2680378e-12    0.016370203 
 9270000      400  2.0741294e-12    0.016370249 
 9280000      400   1.995603e-12    0.016370291 
 9290000      400  1.7870295e-12    0.016370325 
 9300000      400   1.798143e-12    0.016370354 
 9310000      400  1.6902733e-12    0.016370382 
 9320000      400  1.6700982e-12    0.016370409 
 9330000      400  1.6742769e-12    0.016370434 
 9340000      400  1.6053394e-12    0.016370459 
 9350000      400  1.6278442e-12    0.016370481 
 9360000      400  1.2840786e-12    0.016370504 
 9370000      400  1.3063055e-12    0.016370525 
 9380000      400  1.3619672e-12    0.016370546 
 9390000      400  1.4128873e-12    0.016370565 
 9400000      400  1.4155044e-12    0.016370582 
 9410000      400  1.3513347e-12    0.016370597 
 9420000      400  1.2545185e-12     0.01637061 
 9430000      400  1.2129383e-12    0.016370622 
 9440000      400  1.1683747e-12    0.016370631 
 9450000      400  1.0908458e-12    0.016370638 
 9460000      400  1.0668025e-12    0.016370643 
 9470000      400  8.2493869e-13    0.016370589 
 9480000      400  7.1425554e-13    0.016370481 
 9490000      400  5.9656067e-13    0.016370371 
 9500000      400  7.0618086e-13     0.01637026 
 9510000      400  6.9694202e-13    0.016370153 
 9520000      400  7.2291259e-13    0.016370042 
 9530000      400  7.8134328e-13    0.016369926 
 9540000      400  7.0206361e-13    0.016369804 
 9550000      400  5.6902886e-13    0.016369674 
 9560000      400  7.7259096e-13    0.016369546 
 9570000      400  8.6820697e-13    0.016369422 
 9580000      400  7.6760147e-13    0.016369299 
 9590000      400  7.8471094e-13    0.016369184 
 9600000      400  8.1665091e-13    0.016369072 
 9610000      400  8.5885816e-13    0.016368971 
 9620000      400  9.2392582e-13    0.016368875 
 9630000      400  8.8050901e-13    0.016368776 
 9640000      400  8.7126701e-13    0.016368672 
 9650000      400  8.4704252e-13    0.016368566 
 9660000      400  7.3526723e-13    0.016368453 
 9670000      400  7.4637211e-13    0.016368319 
 9680000      400  6.6708157e-13    0.016368155 
 9690000      400   1.231244e-12    0.016367976 
 9700000      400  3.9192135e-12    0.016367763 
 9710000      400  3.2478062e-11    0.016367456 
 9720000      400  1.3763717e-11    0.016367187 
 9730000      400  1.9100393e-12    0.016367225 
 9740000      400  4.0149151e-12    0.016366916 
 9750000      400  8.8467403e-12    0.016366875 
 9760000      400  2.7643162e-11    0.016366629 
 9770000      400  3.6644731e-11    0.016366456 
 9780000      400  1.8801267e-12    0.016366338 
 9790000      400  1.7096697e-11     0.01636611 
 9800000      400  4.9320465e-12     0.01636591 
 9810000      400   1.955327e-11      0.0163658 
 9820000      400  3.5499323e-12    0.016365616 
 9830000      400  2.4531081e-12    0.016365403 
 9840000      400  7.7051767e-12    0.016365182 
 9850000      400  9.7527162e-12    0.016364963 
 9860000      400  9.2624312e-12    0.016364756 
 9870000      400  8.9761277e-12    0.016364567 
 9880000      400  7.8247358e-12    0.016364289 
 9890000      400  7.4576693e-12     0.01636395 
 9900000      400  1.3560135e-11    0.016363573 
 9910000      400  2.6067698e-11    0.016363152 
 9920000      400  2.8533686e-11    0.016362735 
 9930000      400  1.8407369e-11    0.016362332 
 9940000      400  1.1988984e-11    0.016361926 
 9950000      400  1.3732199e-11    0.016361541 
 9960000      400  2.0832097e-11    0.016361171 
 9970000      400   1.181683e-11    0.016360758 
 9980000      400  1.0448711e-11    0.016360346 
 9990000      400  2.2436622e-11    0.016359932 
10000000      400  1.3421319e-11     0.01635951 
10010000      400  1.4629089e-11    0.016359099 
10020000      400  2.2873447e-11    0.016358649 
10030000      400  9.4107889e-12    0.016358262 
10040000      400  9.2773748e-12    0.016357908 
10050000      400  2.5894869e-12    0.016357564 
10060000      400  1.0162328e-11    0.016357213 
10070000      400   8.092836e-12    0.016356864 
10080000      400  2.2889674e-11    0.016356523 
10090000      400  7.1053932e-12    0.016356151 
10100000      400  1.0419878e-11    0.016355725 
10110000      400  2.8262578e-11    0.016355294 
10120000      400  5.5202628e-12    0.016354951 
10130000      400  1.1168872e-11    0.016354582 
10140000      400  1.4112027e-11    0.016354106 
10150000      400  1.4665077e-11    0.016353624 
10160000      400  8.0807916e-12    0.016353138 
10170000      400  1.7099097e-11    0.016352661 
10180000      400  7.7863222e-12    0.016352188 
10190000      400  6.9907391e-12    0.016351831 
10200000      400  5.9992188e-12    0.016351432 
10210000      400  3.9454729e-12    0.016351016 
10220000      400  3.5081213e-12    0.016350591 
10230000      400  3.8521942e-12    0.016350161 
10240000      400   4.282232e-12    0.016349726 
10250000      400  4.4526005e-12    0.016349284 
10260000      400  3.1541383e-12    0.016348844 
10270000      400  2.4212173e-12    0.016348425 
10280000      400  2.1700844e-12    0.016348012 
10290000      400  1.9740938e-12    0.016347602 
10300000      400    1.85488e-12    0.016347193 
10310000      400  1.7048136e-12    0.016346784 
10320000      400  1.6150313e-12    0.016346375 
10330000      400  1.5611429e-12    0.016345966 
10340000      400  1.4838986e-12    0.016345559 
10350000      400  1.4546584e-12    0.016345152 
10360000      400  1.4022209e-12    0.016344744 
10370000      400  1.3903545e-12    0.016344335 
10380000      400   1.442531e-12    0.016343924 
10390000      400  1.4096377e-12    0.016343513 
10400000      400  1.3753369e-12    0.016343099 
10410000      400  1.2219758e-12    0.016342686 
10420000      400  1.2363458e-12    0.016342278 
10430000      400  1.4370432e-12    0.016341866 
10440000      400  1.5750337e-12     0.01634144 
10450000      400  1.4682389e-12    0.016341014 
10460000      400  1.4494973e-12    0.016340583 
10470000      400  1.4911649e-12    0.016340147 
10480000      400  1.4063832e-12    0.016339708 
10490000      400  1.3178802e-12    0.016339272 
10500000      400  1.2731428e-12    0.016338838 
10510000      400  1.2244943e-12    0.016338404 
10520000      400  1.2124804e-12    0.016337971 
10530000      400  1.0811956e-12    0.016337538 
10540000      400  8.5874422e-13     0.01633732 
10550000      400  6.1326131e-13     0.01633725 
10560000      400  5.5453807e-13     0.01633719 
10570000      400  5.3264929e-13    0.016337122 
10580000      400  5.5700347e-13    0.016337051 
10590000      400  5.8239555e-13    0.016336976 
10600000      400  1.4869588e-12    0.016336721 
10610000      400  1.1312716e-11    0.016336336 
10620000      400  1.6638423e-11     0.01633598 
10630000      400  2.7781881e-12    0.016335601 
10640000      400  1.1258532e-11    0.016335221 
10650000      400  1.1909271e-11    0.016334857 
10660000      400  2.4164142e-12    0.016334599 
10670000      400   1.601522e-11    0.016334713 
10680000      400  7.6385173e-12     0.01633488 
10690000      400  5.3481079e-12     0.01633508 
10700000      400  1.5687771e-11    0.016335341 
10710000      400  5.0895783e-12    0.016335639 
10720000      400  2.0142875e-12     0.01633601 
10730000      400   1.187166e-12    0.016336391 
10740000      400  1.3111733e-12    0.016336759 
10750000      400  1.8979136e-12    0.016337118 
10760000      400   1.443088e-12    0.016337468 
10770000      400  1.0444201e-12    0.016337788 
10780000      400  8.0152923e-13    0.016338097 
10790000      400  6.4617081e-13    0.016338401 
10800000      400  6.0395718e-13      0.0163387 
10810000      400  8.0196818e-13    0.016339013 
10820000      400  7.5878966e-13    0.016339335 
10830000      400  7.7321369e-13    0.016339657 
10840000      400    7.68779e-13    0.016339978 
10850000      400  7.3563791e-13    0.016340298 
10860000      400  7.3770129e-13    0.016340617 
10870000      400  7.2095853e-13    0.016340935 
10880000      400  6.9799269e-13    0.016341253 
10890000      400  7.0515884e-13    0.016341569 
10900000      400  7.1297281e-13     0.01634188 
10910000      400  7.0998887e-13    0.016342166 
10920000      400  7.2752282e-13    0.016342451 
10930000      400  1.2272223e-12    0.016342718 
10940000      400  1.4816156e-12    0.016342999 
10950000      400   6.716951e-13    0.016343346 
10960000      400  7.9686663e-13    0.016343682 
10970000      400  6.8495652e-13    0.016344022 
10980000      400  7.4399333e-13     0.01634436 
10990000      400  7.1417101e-13    0.016344693 
11000000      400   6.354307e-13     0.01634503 
11010000      400   8.168713e-13    0.016345375 
11020000      400  7.3310076e-13    0.016345732 
11030000      400  8.7032282e-13    0.016346135 
11040000      400  1.4149666e-12    0.016346552 
11050000      400  9.7957763e-13    0.016346973 
11060000      400  1.3570274e-12    0.016347396 
11070000      400  1.3993903e-12    0.016347797 
11080000      400  1.4938928e-12    0.016348184 
11090000      400  1.4489471e-12    0.016348569 
11100000      400   1.522765e-12    0.016348952 
11110000      400  1.3895812e-12    0.016349344 
11120000      400  1.5019747e-12    0.016349738 
11130000      400  1.4730267e-12    0.016350132 
11140000      400  1.5582117e-12    0.016350524 
11150000      400   1.549731e-12    0.016350892 
11160000      400  1.7172169e-12    0.016351239 
11170000      400  1.6610895e-12    0.016351587 
11180000      400  1.6298462e-12    0.016351936 
11190000      400  1.6857421e-12    0.016352283 
11200000      400  1.6602234e-12    0.016352627 
11210000      400  1.7235608e-12    0.016352969 
11220000      400  1.6880022e-12    0.016353309 
11230000      400  1.7450394e-12    0.016353648 
11240000      400  1.7880904e-12    0.016353986 
11250000      400  1.7440003e-12    0.016354321 
11260000      400  1.7717274e-12    0.016354654 
11270000      400  1.8381956e-12    0.016354985 
11280000      400  1.6702647e-12    0.016355314 
11290000      400  1.8719703e-12    0.016355638 
11300000      400  2.1931385e-12    0.016355954 
11310000      400  2.3655429e-12     0.01635626 
11320000      400   2.395827e-12    0.016356561 
11330000      400  2.4653193e-12    0.016356858 
11340000      400  2.6081778e-12    0.016357151 
11350000      400  2.6168402e-12    0.016357441 
11360000      400  2.6692966e-12    0.016357727 
11370000      400  2.7693574e-12     0.01635801 
11380000      400  2.5491854e-12      0.0163583 
11390000      400  2.6632221e-12    0.016358586 
11400000      400  2.7707405e-12    0.016358871 
11410000      400  2.6756781e-12    0.016359153 
11420000      400   2.712054e-12    0.016359432 
11430000      400  2.7929379e-12    0.016359709 
11440000      400  2.7624643e-12    0.016359984 
11450000      400  2.7569268e-12    0.016360256 
11460000      400  2.7991231e-12    0.016360527 
11470000      400  2.7950146e-12    0.016360796 
11480000      400  2.7603513e-12    0.016361064 
11490000      400  2.7026754e-12    0.016361332 
11500000      400   2.740622e-12    0.016361599 
11510000      400  2.7498165e-12    0.016361865 
11520000      400  2.7304509e-12    0.016362129 
11530000      400  2.7572085e-12     0.01636239 
11540000      400  2.7812795e-12     0.01636265 
11550000      400  2.2113458e-12    0.016362928 
11560000      400  1.4204053e-12    0.016363208 
11570000      400  2.2959566e-12     0.01636349 
11580000      400    1.56691e-12    0.016363768 
11590000      400  1.6754068e-12    0.016364086 
11600000      400  1.3552637e-12    0.016364452 
11610000      400  1.2603774e-12    0.016364757 
11620000      400  3.0199938e-12    0.016364967 
11630000      400  1.3621675e-12    0.016364871 
11640000      400  1.1837065e-12    0.016364771 
11650000      400   1.307549e-12    0.016364667 
11660000      400  1.5575204e-11    0.016364627 
11670000      400   7.350219e-12    0.016364688 
11680000      400  5.1980611e-12    0.016364689 
11690000      400  3.4481482e-12    0.016364669 
11700000      400  1.2068071e-12    0.016364506 
11710000      400  1.0939971e-12    0.016364324 
11720000      400  1.2700588e-12    0.016364134 
11730000      400  1.2398003e-12    0.016363948 
11740000      400  3.2589756e-12    0.016363585 
11750000      400  1.2340787e-11    0.016363124 
11760000      400  1.0305755e-11    0.016362737 
11770000      400  3.2534873e-12    0.016362365 
11780000      400   3.024289e-12    0.016362184 
11790000      400  3.4528923e-12    0.016362049 
11800000      400  3.7825567e-12    0.016361893 
11810000      400  3.4540297e-12    0.016361734 
11820000      400  3.9486245e-12    0.016361568 
11830000      400  3.9502154e-12    0.016361409 
11840000      400  4.5883298e-12     0.01636131 
11850000      400  4.5979416e-12      0.0163613 
11860000      400  4.7030746e-12    0.016361295 
11870000      400  4.1375144e-12    0.016361275 
11880000      400  4.6282593e-12    0.016361237 
11890000      400  4.5400923e-12    0.016361194 
11900000      400  4.8828883e-12    0.016361147 
11910000      400  4.8565548e-12    0.016361099 
11920000      400  4.9543977e-12    0.016361046 
11930000      400  5.0357376e-12    0.016360992 
11940000      400  4.6752252e-12    0.016360928 
11950000      400  4.1001165e-12    0.016360856 
11960000      400  3.6681058e-12    0.016360776 
11970000      400  3.2987126e-12    0.016360692 
11980000      400  2.8536111e-12    0.016360608 
11990000      400  3.1837285e-12    0.016360515 
12000000      400   2.927467e-12    0.016360404 
12010000      400  2.2787893e-12    0.016360257 
12020000      400  2.1017931e-12    0.016360016 
12030000      400  6.8271184e-09      0.0163499 
12040000      400   1.624115e-09    0.016350183 
12050000      400  2.7599041e-10    0.016350158 
12060000      400  4.6780851e-11    0.016350258 
12070000      400  3.1171698e-11    0.016350281 
12080000      400   1.689667e-11    0.016350336 
12090000      400   1.171012e-11    0.016350374 
12100000      400  7.0651948e-12    0.016350304 
12110000      400  9.8063351e-12    0.016350105 
12120000      400  7.4257245e-12    0.016349912 
12130000      400  7.3071476e-12     0.01634972 
12140000      400  6.8373381e-12     0.01634952 
12150000      400  5.8466787e-12    0.016349282 
12160000      400  5.8664063e-12    0.016349047 
12170000      400  3.8269731e-12    0.016348747 
12180000      400  4.3084691e-12    0.016348395 
12190000      400  4.2286538e-12    0.016348054 
12200000      400  4.2839083e-12    0.016347736 
12210000      400  4.1451153e-12    0.016347421 
12220000      400  4.6688481e-12    0.016347108 
12230000      400   7.614509e-12    0.016346742 
12240000      400  3.6547568e-12    0.016346327 
12250000      400  6.5493902e-12    0.016345908 
12260000      400  3.6278225e-12    0.016345499 
12270000      400  4.6044052e-12    0.016345046 
12280000      400  4.7816594e-12    0.016344669 
12290000      400  1.0742755e-11    0.016344516 
12300000      400  8.5093432e-12    0.016344492 
12310000      400  7.5207172e-12    0.016344492 
12320000      400  5.8367655e-12    0.016344515 
12330000      400  5.8007373e-12     0.01634455 
12340000      400  5.4377076e-12    0.016344595 
12350000      400  5.5956648e-12    0.016344649 
12360000      400  5.5769889e-12    0.016344711 
12370000      400  5.9653073e-12    0.016344764 
12380000      400  5.9629737e-12    0.016344814 
12390000      400  6.1980101e-12    0.016344863 
12400000      400  6.5031343e-12    0.016344913 
12410000      400  6.7166146e-12    0.016344964 
12420000      400  6.9151238e-12    0.016345018 
12430000      400  6.7976261e-12    0.016345072 
12440000      400  6.8985024e-12    0.016345127 
12450000      400  6.9198192e-12    0.016345183 
12460000      400  6.9891937e-12     0.01634524 
12470000      400  6.9529897e-12    0.016345298 
12480000      400   7.032088e-12    0.016345357 
12490000      400  7.0394735e-12    0.016345417 
12500000      400  7.0158038e-12    0.016345479 
12510000      400   7.054393e-12    0.016345542 
12520000      400  7.3727189e-12    0.016345606 
12530000      400  7.7419285e-12    0.016345671 
12540000      400  8.2136376e-12    0.016345737 
12550000      400  8.1400589e-12    0.016345804 
12560000      400  8.0980899e-12    0.016345871 
12570000      400  8.1324659e-12    0.016345939 
12580000      400  8.0905389e-12    0.016346008 
12590000      400  8.0719861e-12    0.016346077 
12600000      400  8.2257229e-12    0.016346147 
12610000      400  8.2078515e-12    0.016346216 
12620000      400  8.3244196e-12    0.016346287 
12630000      400  8.3129473e-12    0.016346358 
12640000      400  8.7240622e-12    0.016346427 
12650000      400  8.8021988e-12    0.016346494 
12660000      400  8.9230652e-12    0.016346562 
12670000      400  9.4235562e-12    0.016346629 
12680000      400  9.4314396e-12    0.016346696 
12690000      400  9.8071335e-12    0.016346764 
12700000      400  9.8119121e-12    0.016346831 
12710000      400  9.7815584e-12    0.016346899 
12720000      400  9.7671567e-12    0.016346967 
12730000      400  9.7506085e-12    0.016347035 
12740000      400  9.9103393e-12    0.016347102 
12750000      400  9.9388945e-12     0.01634717 
12760000      400  9.9600444e-12    0.016347237 
12770000      400   9.983202e-12    0.016347305 
12780000      400   9.998233e-12    0.016347372 
12790000      400  1.0042298e-11     0.01634744 
12800000      400  1.0294456e-11    0.016347508 
12810000      400  1.0337269e-11    0.016347574 
12820000      400  1.0294848e-11    0.016347642 
12830000      400  9.8332246e-12    0.016347709 
12840000      400   9.765112e-12    0.016347776 
12850000      400  9.7584987e-12    0.016347842 
12860000      400  9.7938398e-12    0.016347907 
12870000      400  1.0222981e-11    0.016347973 
12880000      400  1.0783344e-11    0.016348045 
12890000      400  1.0693201e-11    0.016348118 
12900000      400  1.0558405e-11     0.01634819 
12910000      400  1.0597168e-11    0.016348261 
12920000      400  1.0770218e-11    0.016348333 
12930000      400  1.0735699e-11    0.016348405 
12940000      400  1.0619018e-11    0.016348476 
12950000      400  1.1218879e-11    0.016348546 
12960000      400  1.1474576e-11    0.016348617 
12970000      400  1.0938609e-11    0.016348688 
12980000      400  1.1077425e-11    0.016348759 
12990000      400  1.1675911e-11     0.01634883 
13000000      400  1.1236778e-11    0.016348902 
13010000      400  1.1246338e-11    0.016348974 
13020000      400  1.1583388e-11    0.016349046 
13030000      400  1.1431462e-11    0.016349122 
13040000      400     1.1759e-11    0.016349202 
13050000      400   1.206367e-11    0.016349282 
13060000      400  1.1726596e-11    0.016349361 
13070000      400  1.2491421e-11    0.016349441 
13080000      400  1.2040485e-11    0.016349521 
13090000      400  1.2262553e-11    0.016349602 
13100000      400  1.2162308e-11    0.016349682 
13110000      400  1.2010714e-11    0.016349763 
13120000      400  1.2382624e-11    0.016349842 
13130000      400  1.2619847e-11    0.016349921 
13140000      400  1.2699577e-11    0.016349999 
13150000      400  1.2493235e-11    0.016350078 
13160000      400  1.2437041e-11    0.016350156 
13170000      400  1.3049089e-11    0.016350233 
13180000      400  1.3510363e-11    0.016350308 
13190000      400  1.3317023e-11    0.016350384 
13200000      400  1.3135657e-11    0.016350459 
13210000      400  1.3410897e-11    0.016350534 
13220000      400  1.3593629e-11    0.016350608 
13230000      400  1.3336324e-11    0.016350684 
13240000      400  1.3534868e-11     0.01635076 
13250000      400  1.3292023e-11    0.016350835 
13260000      400  1.3405382e-11    0.016350911 
13270000      400    1.36295e-11    0.016350986 
13280000      400  1.3609871e-11    0.016351062 
13290000      400  1.3561414e-11    0.016351137 
13300000      400  1.4480086e-11    0.016351212 
13310000      400  1.4189527e-11    0.016351287 
13320000      400  1.4043951e-11    0.016351361 
13330000      400  1.3924854e-11    0.016351433 
13340000      400  1.4012278e-11    0.016351506 
13350000      400  1.3765523e-11     0.01635158 
13360000      400  1.3751437e-11    0.016351654 
13370000      400  1.3799539e-11    0.016351729 
13380000      400  1.4516929e-11    0.016351803 
13390000      400  1.4558368e-11    0.016351876 
13400000      400  1.4799995e-11    0.016351949 
13410000      400  1.5813032e-11    0.016352021 
13420000      400  1.5430821e-11    0.016352094 
13430000      400  1.4976002e-11    0.016352166 
13440000      400  1.5158955e-11    0.016352239 
13450000      400  1.5327288e-11    0.016352311 
13460000      400  1.5371417e-11    0.016352384 
13470000      400  1.5202989e-11    0.016352456 
13480000      400  1.5003096e-11    0.016352529 
13490000      400  1.4884548e-11    0.016352602 
13500000      400  1.4708586e-11    0.016352676 
13510000      400  1.4967473e-11     0.01635275 
13520000      400   1.580119e-11    0.016352823 
13530000      400  1.5960455e-11    0.016352892 
13540000      400  1.5958825e-11     0.01635296 
13550000      400  1.5963507e-11    0.016353027 
13560000      400  1.5479522e-11    0.016353094 
13570000      400  1.5323999e-11    0.016353167 
13580000      400  1.5514745e-11     0.01635324 
13590000      400  1.6088043e-11    0.016353313 
13600000      400  1.6144086e-11    0.016353386 
13610000      400  1.5906541e-11    0.016353457 
13620000      400  1.6020832e-11    0.016353523 
13630000      400  1.6234612e-11    0.016353589 
13640000      400  1.6371552e-11    0.016353652 
13650000      400  1.6138358e-11    0.016353705 
13660000      400  1.6001352e-11    0.016353758 
13670000      400  1.5890807e-11    0.016353811 
13680000      400  1.5892844e-11    0.016353863 
13690000      400  1.5930181e-11    0.016353916 
13700000      400  1.5970688e-11     0.01635397 
13710000      400  1.5922649e-11    0.016354024 
13720000      400  1.6097933e-11    0.016354076 
13730000      400   1.606163e-11    0.016354129 
13740000      400  1.6057286e-11    0.016354182 
13750000      400  1.6015002e-11    0.016354235 
13760000      400   1.600604e-11    0.016354288 
13770000      400  1.6015863e-11    0.016354342 
13780000      400  1.6045556e-11    0.016354395 
13790000      400  1.6006622e-11    0.016354448 
13800000      400  1.6106121e-11    0.016354501 
13810000      400   1.613116e-11    0.016354554 
13820000      400  1.6240777e-11    0.016354607 
13830000      400  1.8111392e-11    0.016354656 
13840000      400   2.151774e-11    0.016354701 
13850000      400  1.9326395e-11    0.016354745 
13860000      400  2.1600211e-11    0.016354787 
13870000      400  2.1818708e-11    0.016354828 
13880000      400  2.0704023e-11    0.016354868 
13890000      400  2.1703237e-11     0.01635491 
13900000      400   2.063681e-11    0.016354951 
13910000      400  2.0893947e-11    0.016354992 
13920000      400  2.0995836e-11    0.016355042 
13930000      400  2.0318246e-11    0.016355093 
13940000      400  2.0902957e-11    0.016355144 
13950000      400   2.199915e-11    0.016355195 
13960000      400  2.0699102e-11    0.016355245 
13970000      400  2.2808343e-11    0.016355294 
13980000      400  2.2185652e-11    0.016355339 
13990000      400  2.2962701e-11    0.016355385 
14000000      400  2.1868227e-11    0.016355431 
14010000      400   2.230651e-11    0.016355477 
14020000      400  2.2166288e-11    0.016355523 
14030000      400  2.1693336e-11     0.01635557 
14040000      400  2.2069512e-11    0.016355615 
14050000      400  2.2240397e-11    0.016355662 
14060000      400  2.1785029e-11    0.016355707 
14070000      400  2.4099589e-11    0.016355744 
14080000      400  2.9677823e-11    0.016355774 
14090000      400  2.6475117e-11    0.016355805 
14100000      400  2.7169805e-11    0.016355837 
14110000      400  2.8707072e-11    0.016355869 
14120000      400  2.6383781e-11      0.0163559 
14130000      400   2.505943e-11    0.016355933 
14140000      400  2.5068593e-11    0.016355966 
14150000      400  2.6503321e-11    0.016355997 
14160000      400  2.6873518e-11    0.016356028 
14170000      400  2.6439037e-11    0.016356057 
14180000      400  2.4029014e-11    0.016356087 
14190000      400  2.3668982e-11     0.01635612 
14200000      400  5.5974807e-11    0.016356133 
14210000      400  4.9442018e-11    0.016356138 
14220000      400  4.4841005e-11    0.016356144 
14230000      400  4.4493216e-11     0.01635615 
14240000      400  4.2611195e-11    0.016356155 
14250000      400  2.9434759e-11    0.016356169 
14260000      400  3.8982006e-11     0.01635619 
14270000      400  3.0422086e-11    0.016356211 
14280000      400  3.3714913e-11    0.016356235 
14290000      400  3.3609771e-11    0.016356257 
14300000      400  3.0851623e-11    0.016356282 
14310000      400  3.2937375e-11    0.016356306 
14320000      400  2.9910054e-11     0.01635633 
14330000      400  3.0688045e-11    0.016356353 
14340000      400  3.0627856e-11    0.016356376 
14350000      400  2.6950041e-11    0.016356397 
14360000      400  2.7309247e-11    0.016356417 
14370000      400  2.8680769e-11    0.016356434 
14380000      400  2.7080714e-11    0.016356453 
14390000      400  2.5871223e-11    0.016356473 
14400000      400  2.5632644e-11    0.016356493 
14410000      400  2.6565696e-11    0.016356514 
14420000      400  2.6394967e-11    0.016356535 
14430000      400  2.5784388e-11    0.016356562 
14440000      400  2.4380072e-11    0.016356591 
14450000      400  2.3500179e-11    0.016356622 
14460000      400  2.3862218e-11    0.016356657 
14470000      400  2.3735794e-11    0.016356694 
14480000      400  2.2488525e-11    0.016356731 
14490000      400  2.2497069e-11    0.016356768 
14500000      400  2.3102343e-11    0.016356806 
14510000      400   3.207476e-11    0.016356844 
14520000      400  2.6052346e-11    0.016356871 
14530000      400  2.9600569e-11    0.016356898 
14540000      400  2.8620859e-11    0.016356925 
14550000      400  2.9893514e-11     0.01635695 
14560000      400  3.0209237e-11    0.016356974 
14570000      400  3.0469922e-11    0.016356998 
14580000      400  3.0431024e-11    0.016357021 
14590000      400  4.7680837e-11    0.016357035 
14600000      400  4.8431784e-11    0.016357041 
14610000      400  4.8645935e-11    0.016357046 
14620000      400  4.5205421e-11    0.016357048 
14630000      400  4.4041076e-11     0.01635705 
14640000      400  4.7241322e-11    0.016357048 
14650000      400  4.6707353e-11    0.016357045 
14660000      400  4.6434127e-11    0.016357041 
14670000      400  4.6008302e-11    0.016357038 
14680000      400   4.357648e-11    0.016357035 
14690000      400  3.4667755e-11    0.016357041 
14700000      400  3.5210089e-11    0.016357053 
14710000      400  3.5776562e-11    0.016357067 
14720000      400  3.3472844e-11    0.016357081 
14730000      400  3.4150711e-11    0.016357095 
14740000      400  3.4215729e-11    0.016357108 
14750000      400  3.1102444e-11    0.016357122 
14760000      400  3.0729867e-11    0.016357139 
14770000      400  2.9367281e-11    0.016357156 
14780000      400  3.4358999e-11    0.016357167 
14790000      400  8.7179494e-08     0.01635671 
14800000      400  3.3128031e-09    0.016356104 
14810000      400  7.0476566e-10    0.016356232 
14820000      400  1.2602696e-10    0.016356262 
14830000      400  5.5468542e-11    0.016356228 
14840000      400  6.7875298e-11    0.016356185 
14850000      400  7.8550729e-11    0.016356141 
14860000      400  8.4582683e-11    0.016356086 
14870000      400  8.7694203e-11    0.016356037 
14880000      400   7.935613e-11    0.016355987 
14890000      400  7.6352302e-11    0.016355936 
14900000      400  6.2278683e-11    0.016355879 
14910000      400  6.2061836e-11    0.016355818 
14920000      400  2.4617687e-10    0.016355745 
14930000      400   1.486734e-09    0.016355393 
14940000      400  8.0383743e-09     0.01635488 
14950000      400  1.1218581e-07    0.016348622 
14960000      400  1.0265206e-08    0.016348751 
14970000      400  9.5923152e-09    0.016348435 
14980000      400  4.1383579e-09    0.016348535 
14990000      400  1.0526492e-10    0.016348644 
15000000      400  5.4739158e-10    0.016348623 
15010000      400  1.4924168e-10    0.016348674 
15020000      400  2.7184794e-11    0.016348726 
15030000      400  5.2622899e-11    0.016348754 
15040000      400  8.7825655e-12    0.016348793 
15050000      400  7.7140655e-12    0.016348835 
15060000      400  1.5324647e-11    0.016348875 
15070000      400  1.8078658e-11    0.016348913 
15080000      400  1.3882291e-11    0.016348953 
15090000      400  1.2140592e-11    0.016348994 
15100000      400  1.2791606e-11    0.016349037 
15110000      400  1.3543969e-11    0.016349079 
15120000      400  1.3650405e-11    0.016349121 
15130000      400  1.3835039e-11    0.016349162 
15140000      400  1.4768241e-11    0.016349202 
15150000      400   1.563176e-11    0.016349241 
15160000      400  1.6745165e-11    0.016349281 
15170000      400  1.6845375e-11    0.016349319 
15180000      400   1.659692e-11    0.016349358 
15190000      400  2.0153705e-11    0.016349389 
15200000      400  2.4877656e-11    0.016349403 
15210000      400  3.8777648e-11    0.016349402 
15220000      400  3.0943056e-11    0.016349403 
15230000      400  3.4018619e-11    0.016349403 
15240000      400   3.218854e-11    0.016349404 
15250000      400  3.2603789e-11    0.016349403 
15260000      400  3.2694363e-11    0.016349404 
15270000      400  3.2368043e-11    0.016349403 
15280000      400  3.2992839e-11    0.016349404 
15290000      400  3.2010471e-11    0.016349404 
15300000      400  3.3488881e-11    0.016349404 
15310000      400  3.3971579e-11    0.016349403 
15320000      400  3.4649979e-11    0.016349402 
15330000      400  3.7034809e-11    0.016349399 
15340000      400  3.5447888e-11    0.016349398 
15350000      400  3.8121723e-11    0.016349395 
15360000      400  3.7352712e-11    0.016349392 
15370000      400  4.0206268e-11    0.016349388 
15380000      400  3.9664292e-11    0.016349384 
15390000      400  4.0724303e-11    0.016349379 
15400000      400  4.0625192e-11    0.016349372 
15410000      400   3.543225e-11    0.016349369 
15420000      400  3.1964837e-11     0.01634937 
15430000      400   3.253724e-11    0.016349373 
15440000      400  3.0068293e-11    0.016349378 
15450000      400  2.8817552e-11    0.016349388 
15460000      400  2.8158086e-11    0.016349399 
15470000      400  2.7161008e-11    0.016349411 
15480000      400  2.6861118e-11    0.016349423 
15490000      400  2.8921303e-11    0.016349434 
15500000      400  2.6698818e-11    0.016349447 
15510000      400  2.6259422e-11     0.01634946 
15520000      400  2.6779653e-11    0.016349474 
15530000      400  2.5835134e-11    0.016349489 
15540000      400  2.4822324e-11    0.016349505 
15550000      400  2.5553989e-11    0.016349522 
15560000      400  2.6048174e-11     0.01634954 
15570000      400  2.5534475e-11    0.016349556 
15580000      400  2.4993885e-11    0.016349573 
15590000      400  2.5998803e-11    0.016349589 
15600000      400  2.6268918e-11    0.016349605 
15610000      400  2.5467423e-11    0.016349622 
15620000      400  2.5213785e-11    0.016349638 
15630000      400  2.5482919e-11    0.016349655 
15640000      400   2.552881e-11    0.016349672 
15650000      400  2.5278186e-11    0.016349689 
15660000      400  2.5115081e-11    0.016349706 
15670000      400  2.5172444e-11    0.016349722 
15680000      400  2.5319473e-11     0.01634974 
[...]
46590000      400  3.6065193e-11    0.016352788 
46600000      400  3.4791402e-11    0.016352791 
46610000      400  3.8404393e-11    0.016352795 
46620000      400  3.5289262e-11    0.016352798 
46630000      400  3.7305078e-11    0.016352798 
46640000      400  3.7213775e-11    0.016352797 
46650000      400  3.5816427e-11    0.016352796 
46660000      400  3.6651727e-11    0.016352793 
46670000      400  3.0902075e-11    0.016352787 
46680000      400  4.3316726e-11    0.016352781 
46690000      400  3.3850441e-11    0.016352774 
46700000      400  3.7779476e-11    0.016352771 
46710000      400  4.0601552e-11    0.016352763 
46720000      400  3.1913305e-11    0.016352756 
46730000      400  3.8210462e-11    0.016352748 
46740000      400  3.2452863e-11    0.016352742 
46750000      400  3.7605697e-11    0.016352734 
46760000      400  4.1409103e-11    0.016352722 
46770000      400  4.0805757e-11     0.01635271 
46780000      400  4.2017615e-11      0.0163527 
46790000      400  4.4495539e-11    0.016352691 
46800000      400  4.8363971e-11    0.016352679 
46810000      400  5.1804807e-11    0.016352664 
46820000      400  9.1962491e-11    0.016352641 
46830000      400  4.6663422e-11    0.016352455 
46840000      400  8.9983061e-11     0.01635247 
46850000      400  1.7424124e-11    0.016352469 
46860000      400   1.255988e-10    0.016352458 
46870000      400  2.8643002e-11    0.016352455 
46880000      400  1.2721908e-10    0.016352459 
46890000      400  2.3622155e-10    0.016352441 
46900000      400  1.6109483e-10      0.0163524 
46910000      400  9.2494388e-11    0.016352351 
46920000      400  5.0049551e-11    0.016352294 
46930000      400  5.3123124e-11    0.016352226 
46940000      400  5.7677572e-11    0.016352146 
46950000      400   9.399654e-11    0.016352068 
46960000      400   1.019516e-10     0.01635199 
46970000      400  1.1083737e-10    0.016351911 
46980000      400  5.6830746e-11    0.016351826 
46990000      400  8.3285427e-11    0.016351731 
47000000      400  9.0753115e-11    0.016351644 
47010000      400   1.152022e-10    0.016351581 
47020000      400  1.5922399e-11     0.01635158 
47030000      400  4.8855197e-11    0.016351583 
47040000      400  3.2833768e-11    0.016351586 
47050000      400  4.1317111e-11    0.016351591 
47060000      400  2.9165019e-11    0.016351595 
47070000      400  4.3818246e-11    0.016351597 
47080000      400  2.7228236e-11      0.0163516 
47090000      400  4.5596105e-11    0.016351603 
47100000      400  3.1463626e-11    0.016351604 
47110000      400  3.6729296e-11    0.016351604 
47120000      400  3.3996931e-11    0.016351602 
47130000      400  3.4972663e-11    0.016351601 
47140000      400  3.3692459e-11    0.016351602 
47150000      400  3.4685379e-11    0.016351596 
47160000      400  3.5916606e-11    0.016351579 
47170000      400  3.4595341e-11     0.01635156 
47180000      400  4.5249909e-11    0.016351517 
47190000      400  6.7251819e-11    0.016351454 
47200000      400  6.1217839e-11    0.016351388 
47210000      400  5.7274928e-11    0.016351316 
47220000      400  6.6551655e-11    0.016351243 
47230000      400  6.8260647e-11    0.016351172 
47240000      400  6.0526828e-11    0.016351102 
47250000      400  5.3678784e-11     0.01635103 
47260000      400  4.9601964e-11    0.016350957 
47270000      400  4.7300982e-11     0.01635088 
47280000      400  3.4644678e-11    0.016350821 
47290000      400  3.3735827e-11     0.01635079 
47300000      400  3.3698623e-11    0.016350751 
47310000      400  3.4346782e-11    0.016350715 
47320000      400  3.8134839e-11    0.016350678 
47330000      400  3.9927234e-11    0.016350641 
47340000      400  4.9631482e-11    0.016350591 
47350000      400  4.6619695e-11    0.016350532 
47360000      400  1.1614341e-11    0.016350478 
47370000      400  3.8426492e-11    0.016350427 
47380000      400  2.5366265e-11    0.016350378 
47390000      400  1.0674884e-11    0.016350319 
47400000      400  3.8984846e-11    0.016350269 
47410000      400   7.470689e-11    0.016350088 
47420000      400  2.5864193e-11    0.016350086 
47430000      400  2.2440508e-11    0.016350031 
47440000      400   4.707959e-11    0.016349965 
47450000      400  2.0224215e-11    0.016349754 
47460000      400  3.5310763e-11    0.016349704 
47470000      400  3.4919364e-11     0.01634964 
47480000      400  2.6462759e-11    0.016349586 
47490000      400  3.0511504e-11    0.016349539 
47500000      400  2.7612088e-11    0.016349499 
47510000      400  2.7454439e-11    0.016349462 
47520000      400  2.6451123e-11    0.016349427 
47530000      400  2.8089363e-11    0.016349391 
47540000      400  2.6211177e-11    0.016349359 
47550000      400    2.66063e-11    0.016349327 
47560000      400  2.5977322e-11      0.0163493 
47570000      400  2.5077385e-11    0.016349272 
47580000      400  2.6307678e-11    0.016349245 
47590000      400  2.5291615e-11    0.016349217 
47600000      400  2.4582647e-11    0.016349189 
47610000      400  2.6034937e-11    0.016349165 
47620000      400  2.5044203e-11    0.016349138 
47630000      400  2.4076621e-11    0.016349112 
47640000      400  2.4908324e-11    0.016349086 
47650000      400  2.4708632e-11    0.016349062 
47660000      400  2.3540618e-11    0.016349039 
47670000      400   2.298093e-11    0.016349018 
47680000      400  2.3962934e-11    0.016348996 
47690000      400  2.4371756e-11    0.016348974 
47700000      400  2.3769929e-11    0.016348951 
47710000      400  2.3157296e-11    0.016348929 
47720000      400  2.3273603e-11     0.01634891 
47730000      400  2.3995677e-11    0.016348889 
47740000      400  2.4234986e-11    0.016348867 
47750000      400  2.3605466e-11    0.016348845 
47760000      400  2.3893891e-11    0.016348823 
47770000      400  2.3397496e-11    0.016348802 
47780000      400  2.3624366e-11    0.016348782 
47790000      400  2.3689691e-11    0.016348763 
47800000      400  2.3717337e-11    0.016348744 
47810000      400  2.3643364e-11    0.016348726 
47820000      400  2.3280727e-11     0.01634871 
47830000      400  2.3175698e-11    0.016348696 
47840000      400  2.3017791e-11    0.016348681 
47850000      400  2.2878247e-11    0.016348665 
47860000      400  2.2721541e-11    0.016348648 
47870000      400   2.263646e-11    0.016348633 
47880000      400  2.2615613e-11     0.01634862 
47890000      400  2.2627864e-11    0.016348605 
47900000      400  2.2557677e-11     0.01634859 
47910000      400   2.274185e-11    0.016348569 
47920000      400  2.2302294e-11    0.016348547 
47930000      400  2.2099356e-11     0.01634853 
47940000      400  2.2217829e-11    0.016348515 
47950000      400  2.2212448e-11    0.016348498 
47960000      400  2.2263366e-11    0.016348481 
47970000      400  2.2203481e-11    0.016348464 
47980000      400  2.2198034e-11    0.016348448 
47990000      400  2.1968232e-11    0.016348434 
48000000      400    2.18698e-11    0.016348419 
48010000      400  2.1775918e-11    0.016348403 
48020000      400  2.1310786e-11    0.016348387 
48030000      400  2.1366142e-11    0.016348372 
48040000      400  2.1403515e-11    0.016348359 
48050000      400   2.076606e-11    0.016348344 
48060000      400   2.110869e-11    0.016348329 
48070000      400   6.245494e-11    0.016348286 
48080000      400  7.2988828e-11    0.016348213 
48090000      400  5.7920737e-11    0.016348145 
48100000      400  4.6312286e-11     0.01634808 
48110000      400  3.0543576e-11    0.016348022 
48120000      400  3.2451609e-11    0.016347974 
48130000      400  8.2815321e-10     0.01634794 
48140000      400  1.1334615e-09    0.016347867 
48150000      400   1.092319e-10    0.016347874 
48160000      400  2.5110803e-11    0.016347889 
48170000      400  1.7056935e-11    0.016347891 
48180000      400  2.5560296e-11    0.016347892 
48190000      400  2.0588516e-11    0.016347893 
48200000      400  1.9546685e-11    0.016347895 
48210000      400  1.9376119e-11    0.016347894 
48220000      400   1.827218e-11    0.016347891 
48230000      400  1.8124752e-11    0.016347889 
48240000      400  1.8300938e-11     0.01634789 
48250000      400  1.8645311e-11    0.016347892 
48260000      400  1.9225208e-11    0.016347891 
48270000      400  1.9571431e-11    0.016347888 
48280000      400  2.3137523e-11    0.016347881 
48290000      400  2.1094024e-11    0.016347874 
48300000      400  1.9937022e-11    0.016347868 
48310000      400  2.0806142e-11     0.01634786 
48320000      400  2.1910175e-11    0.016347852 
48330000      400  2.1528903e-11    0.016347845 
48340000      400  2.0827422e-11    0.016347838 
48350000      400  2.0902851e-11    0.016347831 
48360000      400  2.1419327e-11    0.016347822 
48370000      400  2.0830874e-11    0.016347814 
48380000      400  2.0736245e-11    0.016347806 
48390000      400  2.1359619e-11    0.016347798 
48400000      400  2.1195249e-11    0.016347789 
48410000      400  2.1002533e-11    0.016347779 
48420000      400  2.1250974e-11    0.016347769 
48430000      400  2.1224352e-11    0.016347761 
48440000      400  2.1197043e-11    0.016347751 
48450000      400  2.1452063e-11    0.016347739 
48460000      400  2.1384582e-11    0.016347725 
48470000      400  2.6000991e-11    0.016347713 
48480000      400  2.2189169e-11    0.016347699 
48490000      400  2.2011835e-11    0.016347685 
48500000      400  2.3502787e-11     0.01634767 
48510000      400  2.2232553e-11    0.016347658 
48520000      400  2.2894367e-11    0.016347644 
48530000      400  2.2119336e-11    0.016347629 
48540000      400  2.2426541e-11    0.016347613 
48550000      400  2.2521436e-11    0.016347597 
48560000      400  2.2209431e-11    0.016347581 
48570000      400  2.2419043e-11    0.016347562 
48580000      400  2.2464923e-11    0.016347537 
48590000      400  2.4763091e-11    0.016347504 
48600000      400  2.6284065e-11     0.01634747 
48610000      400  2.8608454e-11    0.016347432 
48620000      400  2.8498746e-11    0.016347393 
48630000      400   2.765079e-11    0.016347354 
48640000      400  2.6972529e-11    0.016347311 
48650000      400  2.6848645e-11    0.016347269 
48660000      400  2.6773322e-11    0.016347229 
48670000      400  2.7231118e-11    0.016347187 
48680000      400  2.7793849e-11    0.016347143 
48690000      400   2.749709e-11      0.0163471 
48700000      400  2.7599375e-11    0.016347057 
48710000      400  2.7885371e-11    0.016347012 
48720000      400   2.782907e-11    0.016346966 
48730000      400  2.1336892e-10    0.016346925 
48740000      400  4.5050731e-11    0.016346906 
48750000      400  7.6611995e-11    0.016346862 
48760000      400  2.8050356e-11    0.016346816 
48770000      400  3.0792187e-11    0.016346769 
48780000      400  3.1197367e-11    0.016346714 
48790000      400  1.4158566e-10     0.01634665 
48800000      400  5.8705088e-11    0.016346534 
48810000      400  8.8403645e-11    0.016346433 
48820000      400  8.2167631e-11    0.016346345 
48830000      400  1.4025622e-10    0.016346224 
48840000      400  1.3105361e-07    0.016345657 
48850000      400  4.8730243e-07    0.016342601 
48860000      400  3.1165494e-08    0.016343362 
48870000      400  2.1396161e-08    0.016343431 
48880000      400  7.3927982e-09     0.01634347 
48890000      400  2.3637225e-09    0.016343473 
48900000      400  1.9958301e-10    0.016343477 
48910000      400  1.5282878e-11    0.016343478 
48920000      400  8.4066463e-11    0.016343496 
48930000      400  1.8807095e-11    0.016343501 
48940000      400  5.8752028e-11    0.016343499 
48950000      400   8.865462e-12      0.0163435 
48960000      400  2.3144726e-11    0.016343509 
48970000      400  2.1121408e-11    0.016343513 
48980000      400  1.6119385e-11    0.016343506 
48990000      400  2.0230716e-11    0.016343499 
49000000      400  1.8499069e-11    0.016343499 
49010000      400  1.8787453e-11    0.016343501 
49020000      400   2.156119e-11    0.016343495 
49030000      400  1.9859438e-11    0.016343482 
49040000      400  1.9447103e-11    0.016343475 
49050000      400   1.945414e-11    0.016343474 
49060000      400  2.0120614e-11    0.016343473 
49070000      400  1.9405464e-11    0.016343466 
49080000      400  1.8786538e-11    0.016343458 
49090000      400  1.9046942e-11    0.016343455 
49100000      400  1.8174783e-11    0.016343456 
49110000      400  1.8271568e-11    0.016343452 
49120000      400   1.834589e-11    0.016343444 
49130000      400  1.7950501e-11    0.016343438 
49140000      400  1.7988379e-11    0.016343437 
49150000      400  1.8263861e-11    0.016343435 
49160000      400   1.870755e-11    0.016343429 
49170000      400  1.8062545e-11    0.016343421 
49180000      400  1.8094782e-11    0.016343416 
49190000      400  1.7888381e-11    0.016343415 
49200000      400  1.8099921e-11    0.016343412 
49210000      400  1.8165423e-11    0.016343406 
49220000      400  1.8152607e-11      0.0163434 
49230000      400  1.7927801e-11    0.016343399 
49240000      400  1.7799455e-11    0.016343398 
49250000      400  1.7998108e-11    0.016343395 
49260000      400  1.7908765e-11    0.016343389 
49270000      400   1.782947e-11    0.016343385 
49280000      400  1.7795442e-11    0.016343382 
49290000      400  1.7607345e-11    0.016343379 
49300000      400  1.7459291e-11    0.016343373 
49310000      400  1.7222488e-11    0.016343366 
49320000      400   1.738445e-11    0.016343361 
49330000      400  1.7303018e-11    0.016343358 
49340000      400  1.7055962e-11    0.016343354 
49350000      400  1.7420444e-11    0.016343348 
49360000      400  1.7374019e-11     0.01634334 
49370000      400  1.7175577e-11    0.016343335 
49380000      400  1.7302992e-11     0.01634333 
49390000      400  1.7373398e-11    0.016343324 
49400000      400  1.7304071e-11    0.016343317 
49410000      400  1.7325127e-11    0.016343309 
49420000      400  1.7367417e-11    0.016343302 
49430000      400  1.7267112e-11    0.016343296 
49440000      400  1.7294582e-11    0.016343289 
49450000      400  1.7277283e-11    0.016343281 
49460000      400  1.7320442e-11    0.016343271 
49470000      400  1.7300552e-11    0.016343261 
49480000      400  1.7273043e-11    0.016343252 
49490000      400  1.7157562e-11    0.016343242 
49500000      400  1.7213663e-11     0.01634323 
49510000      400  1.7128538e-11    0.016343216 
49520000      400  1.7230981e-11    0.016343203 
49530000      400  1.5970034e-11     0.01634319 
49540000      400  1.5655764e-11    0.016343177 
49550000      400  1.5672414e-11    0.016343163 
49560000      400  1.5709004e-11     0.01634315 
49570000      400  1.5619223e-11    0.016343133 
49580000      400  1.5469671e-11    0.016343113 
49590000      400  1.5851072e-11    0.016343093 
49600000      400  1.5616523e-11    0.016343073 
49610000      400  1.5792834e-11    0.016343051 
49620000      400  1.5658323e-11     0.01634303 
49630000      400  1.5439289e-11    0.016343014 
49640000      400  1.5638832e-11    0.016342997 
49650000      400  1.5544108e-11    0.016342979 
49660000      400  1.5601023e-11    0.016342962 
49670000      400  1.5913096e-11    0.016342943 
49680000      400  1.6007559e-11    0.016342924 
49690000      400  1.6077973e-11    0.016342905 
49700000      400  1.6005229e-11    0.016342886 
49710000      400  1.5797196e-11     0.01634287 
49720000      400  1.5778293e-11    0.016342853 
49730000      400  1.5826012e-11    0.016342837 
49740000      400  1.5962967e-11    0.016342823 
49750000      400  1.5898134e-11    0.016342809 
49760000      400  1.5913746e-11    0.016342796 
49770000      400  1.5929275e-11    0.016342783 
49780000      400  1.5935536e-11     0.01634277 
49790000      400  1.5968411e-11    0.016342757 
49800000      400  1.6273471e-11    0.016342743 
49810000      400  1.5855784e-11    0.016342724 
49820000      400  1.5797393e-11    0.016342703 
49830000      400  1.5561839e-11    0.016342679 
49840000      400  1.5556597e-11    0.016342654 
49850000      400  1.5402244e-11    0.016342632 
49860000      400  1.6375146e-11    0.016342611 
49870000      400  1.6964527e-11    0.016342587 
49880000      400   1.699838e-11    0.016342563 
49890000      400  1.6802901e-11    0.016342542 
49900000      400  1.5985589e-11    0.016342524 
49910000      400  1.6054273e-11    0.016342509 
49920000      400  1.5879005e-11    0.016342494 
49930000      400  1.5895652e-11    0.016342479 
49940000      400  1.5844828e-11    0.016342464 
49950000      400  1.5815636e-11     0.01634245 
49960000      400  1.5318042e-11    0.016342437 
49970000      400  1.5950219e-11    0.016342425 
49980000      400  1.5220681e-11    0.016342414 
49990000      400   1.631747e-11    0.016342403 
50000000      400  1.5622021e-11    0.016342394 
50010000      400  1.5796481e-11    0.016342383 
50020000      400  1.5849925e-11    0.016342373 
50030000      400   1.594468e-11     0.01634236 
50040000      400  1.6060608e-11    0.016342348 
50050000      400  1.5340773e-11    0.016342334 
50060000      400  1.5071301e-11     0.01634232 
50070000      400  1.6110124e-11    0.016342307 
50080000      400  1.5677432e-11    0.016342294 
50090000      400     1.5153e-11    0.016342281 
50100000      400  1.5486106e-11     0.01634227 
50110000      400  1.4683927e-11    0.016342263 
50120000      400  1.4924738e-11    0.016342265 
50130000      400  1.5013887e-11    0.016342267 
50140000      400  1.4728426e-11     0.01634227 
50150000      400   1.490605e-11    0.016342272 
50160000      400  1.4889578e-11    0.016342275 
50170000      400  1.4539143e-11    0.016342278 
50180000      400  1.4791183e-11    0.016342282 
50190000      400  1.5072549e-11    0.016342286 
50200000      400  1.5249897e-11    0.016342289 
50210000      400  1.5172488e-11    0.016342293 
50220000      400  1.5239513e-11    0.016342297 
50230000      400  1.5009143e-11    0.016342304 
50240000      400  1.4755829e-11    0.016342312 
50250000      400  1.5934848e-11    0.016342321 
50260000      400  1.5407759e-11    0.016342329 
50270000      400  1.4607587e-11    0.016342337 
50280000      400  1.5660526e-11    0.016342345 
50290000      400  1.4092607e-11    0.016342353 
50300000      400  1.4542798e-11     0.01634236 
50310000      400  1.4728637e-11    0.016342366 
50320000      400   1.433588e-11    0.016342372 
50330000      400  1.3986679e-11    0.016342378 
50340000      400  1.4041004e-11    0.016342383 
50350000      400   1.372814e-11    0.016342389 
50360000      400  1.4119368e-11    0.016342394 
50370000      400  1.4054813e-11    0.016342405 
50380000      400  1.3906684e-11    0.016342422 
50390000      400  1.4111948e-11    0.016342437 
50400000      400  1.3845901e-11    0.016342452 
50410000      400  1.3760521e-11    0.016342468 
50420000      400  1.4002999e-11    0.016342484 
50430000      400  1.4524917e-11    0.016342501 
50440000      400  1.4107279e-11    0.016342519 
50450000      400  1.4542765e-11    0.016342537 
50460000      400    1.41978e-11    0.016342555 
50470000      400  1.4355463e-11    0.016342572 
50480000      400  1.4231287e-11     0.01634259 
50490000      400  1.5136972e-11    0.016342615 
50500000      400  1.5500282e-11    0.016342643 
50500002      400  1.5500154e-11    0.016342643 
Loop time of 20839.3 on 4 procs for 50000000 steps with 400 atoms, finish time Wed May  2 03:40:52 2018


Pair  time (%) = 7562.78 (36.2909)
Neigh time (%) = 1.97083 (0.00945727)
Comm  time (%) = 650.154 (3.11984)
Outpt time (%) = 41.0052 (0.196768)
Other time (%) = 12583.4 (60.383)

Nlocal:    100 ave 236 max 0 min
Histogram: 2 0 0 0 0 0 1 0 0 1
Nghost:    80.25 ave 177 max 0 min
Histogram: 2 0 0 0 0 0 0 0 1 1
Neighs:    1767.25 ave 4158 max 0 min
Histogram: 2 0 0 0 0 0 0 1 0 1

Total # of neighbors = 7069
Ave neighs/atom = 17.6725
Neighbor list builds = 5000
Dangerous builds = 0

   write_restart	restart/shear_constant_volume.restart		# write a binary file of the current state of the simulation


