ITEM: TIMESTEP
400820000
ITEM: NUMBER OF ATOMS
400
ITEM: BOX BOUNDS pp ff ff
0 0.02
0 0.04
-0.00065 0.00065
ITEM: ATOMS id type radius x y z vx vy vz fx fy fz omegax omegay omegaz 
74 1 0.00046 0.00132617 0.000443882 3.36586e-05 -3.51595e-05 -4.09959e-06 0 4.04486e-09 3.78298e-09 0 -0.0214838 -0.146477 0.0403109 
35 1 0.00052 0.000911417 0.00128552 -1.66342e-05 -5.79936e-05 1.80438e-05 0 1.52464e-08 8.11495e-09 0 0.0527067 0.0932625 -0.0273055 
7 1 0.00056 0.000242866 0.000443281 -3.64628e-05 3.69779e-06 -6.45105e-06 0 3.13346e-09 7.92462e-09 0 -0.00645478 -0.0380352 -0.00637309 
43 1 0.0005 0.00183417 0.00127832 5.09221e-06 -5.03209e-05 -9.1332e-06 0 1.15433e-08 7.6951e-09 0 -0.0159873 -0.0958938 -0.0027023 
30 1 0.00052 0.00226798 0.00043574 -1.24497e-05 -2.4964e-05 -8.23374e-07 0 5.25629e-09 4.1485e-09 0 0.0020106 0.123199 0.0260759 
67 1 0.00048 0.00274041 0.00128782 4.63423e-05 -4.60737e-05 -9.57825e-07 0 9.75919e-09 4.97853e-09 0 0.0426269 0.0962765 0.0311413 
17 1 0.00054 0.00324693 0.000515789 4.67087e-05 -2.19788e-05 4.70647e-06 0 5.43463e-09 2.3678e-09 0 -0.00392494 -0.118536 0.0119576 
86 1 0.00044 0.00374442 0.00129155 -1.5404e-05 -4.18608e-05 9.12853e-06 0 4.66203e-09 2.08663e-09 0 -0.10265 -0.0142988 0.0193498 
84 1 0.00044 0.00460574 0.00119551 -2.0603e-05 -3.54601e-05 3.46483e-06 0 3.91005e-09 6.23221e-10 0 0.0824456 0.0184858 0.0225492 
54 1 0.0005 0.00417323 0.000417307 3.04549e-05 -1.42167e-05 1.46984e-06 0 2.14608e-09 1.66463e-10 0 0.00205137 0.124059 0.00480221 
46 1 0.0005 0.00511658 0.000469721 4.04467e-05 -1.81312e-05 2.1595e-06 0 1.28303e-09 -1.95752e-10 0 0.00149809 -0.118867 0.0150502 
15 1 0.00054 0.00566982 0.00130821 -2.65834e-05 -4.00318e-05 2.61116e-06 0 5.6353e-09 -6.30523e-10 0 -0.0487237 0.0509739 0.00654112 
72 1 0.00048 0.00664177 0.00128926 -2.02466e-06 -4.58213e-05 8.48761e-06 0 2.01201e-09 9.17567e-10 0 0.0688835 -0.0574178 0.0498911 
78 1 0.00046 0.0060222 0.000418691 -1.20537e-05 -1.48408e-05 4.26447e-06 0 8.81639e-10 -5.87428e-11 0 -0.00612397 0.123624 0.016252 
52 1 0.0005 0.00693177 0.00044508 3.91278e-05 -1.01434e-05 8.12077e-06 0 1.241e-09 1.91183e-10 0 -0.00302469 -0.10952 0.0135949 
8 1 0.00056 0.00824421 0.00117609 -1.82355e-06 -4.11048e-05 2.12546e-06 0 1.65694e-09 -3.34902e-09 0 0.030088 -0.016827 0.10088 
92 1 0.00042 0.00779489 0.000364539 3.24564e-05 4.32726e-07 -4.60617e-06 0 3.11523e-10 -6.08645e-10 0 0.00537828 0.126829 -0.0279834 
60 1 0.00048 0.00876689 0.000398167 -3.28708e-05 1.74371e-06 1.13104e-05 0 3.26273e-10 -1.00074e-09 0 0.0017089 -0.0428052 -0.017909 
32 1 0.00052 0.00930331 0.00138536 3.24568e-05 -6.32011e-05 -1.57781e-05 0 1.01369e-08 2.5132e-10 0 0.044769 -0.118854 0.100041 
20 1 0.00054 0.00975767 0.000490903 -2.76781e-05 -9.88861e-06 -9.11218e-07 0 1.26914e-09 -1.62754e-09 0 -0.00407098 0.0400701 0.00767635 
28 1 0.00052 0.010387 0.0013119 -4.92787e-05 -4.70804e-05 -9.60028e-06 0 2.30975e-09 4.50439e-10 0 0.0275936 -0.0198623 0.0437907 
34 1 0.00052 0.0113788 0.00139187 -4.32784e-06 -5.17402e-05 4.73116e-07 0 2.63522e-09 7.61798e-10 0 -0.0223753 0.02087 0.0234502 
59 1 0.00048 0.0107654 0.000443877 -3.96086e-06 -1.46902e-05 -3.15237e-06 0 7.59166e-10 1.40188e-10 0 0.00056946 -0.0485585 0.0172892 
9 1 0.00056 0.0117803 0.000485387 -1.32742e-05 -2.09414e-05 2.35954e-06 0 4.42358e-10 1.88641e-10 0 -0.00448993 0.042068 0.0246308 
19 1 0.00054 0.0124067 0.00132925 1.95463e-05 -4.31758e-05 1.03585e-05 0 1.23225e-09 8.74078e-10 0 0.0304827 -0.0203994 0.0154954 
68 1 0.00048 0.0127816 0.000442485 1.3181e-05 -2.10636e-05 4.81781e-06 0 -1.88151e-12 6.47268e-10 0 -0.00374923 -0.0459737 0.0105495 
12 1 0.00056 0.0134344 0.00122591 3.75182e-05 -3.76766e-05 4.11664e-06 0 -3.95305e-10 3.96155e-09 0 -0.000869527 0.0230788 -0.00169232 
94 1 0.00042 0.0136142 0.000329714 1.89547e-05 -1.9394e-05 5.12134e-06 0 -4.77575e-10 1.02596e-09 0 -0.00723624 0.0545708 0.0307428 
48 1 0.0005 0.014353 0.00161943 1.99029e-05 -5.80268e-05 1.01817e-05 0 1.95741e-09 4.21376e-09 0 -0.0109453 -0.0301357 0.0656398 
33 1 0.00052 0.0143651 0.00072705 -4.71808e-05 -2.67445e-05 4.80757e-06 0 -3.00148e-09 2.34979e-09 0 0.0115119 -0.0417179 -0.0100152 
83 1 0.00046 0.0156475 0.00128535 1.72248e-05 -4.9601e-05 4.3852e-06 0 -6.85799e-09 4.76358e-09 0 -0.0412192 -0.103531 0.0312772 
29 1 0.00052 0.0152279 0.000426703 3.7231e-06 -1.92875e-05 3.65443e-06 0 -3.25581e-09 3.43451e-09 0 0.00192212 0.042231 0.0285473 
91 1 0.00044 0.01655 0.0013163 3.54547e-05 -5.46852e-05 -1.37563e-05 0 6.43902e-09 6.14674e-09 0 -0.112377 0.0955107 0.118679 
53 1 0.0005 0.0161582 0.000503483 -4.85386e-05 -1.95951e-05 1.73285e-06 0 -1.64323e-09 9.54451e-09 0 0.12306 -0.0405257 -0.0420635 
65 1 0.00048 0.0177954 0.00133115 -3.92382e-05 -5.94368e-05 -2.89481e-06 0 5.93013e-09 6.71189e-09 0 0.0516843 -0.0216066 0.110172 
4 1 0.00058 0.0171613 0.000538479 -3.8784e-05 -1.1996e-05 -9.04024e-06 0 6.74211e-10 8.78687e-09 0 -0.00735125 0.0432427 0.00439904 
5 1 0.00056 0.0182413 0.000486037 3.096e-05 -7.4691e-06 1.03546e-06 0 1.33215e-09 5.82065e-09 0 -0.0027323 -0.0445715 0.00544089 
49 1 0.0005 0.0199975 0.00131691 4.93031e-05 -7.38758e-05 -3.92166e-05 0 1.62531e-08 1.82867e-08 0 0.0561285 -0.104349 0.182227 
40 1 0.0005 0.0189194 0.00128032 6.72355e-06 -5.73565e-05 -3.14167e-08 0 7.00795e-09 7.87417e-09 0 -0.0295261 0.0163531 0.120614 
42 1 0.0005 0.0192497 0.0004306 -3.72737e-05 -1.45498e-06 5.50646e-06 0 8.33601e-10 4.08901e-09 0 0.00160196 0.0464518 -0.00221414 
18 1 0.00054 0.000907731 0.00230645 5.14548e-06 -9.17591e-05 2.283e-05 0 1.67823e-08 1.05322e-08 0 -0.0773954 0.642885 0.0610759 
50 1 0.0005 0.00038282 0.00315866 -4.9345e-05 -0.000125608 -2.07655e-05 0 1.66847e-08 1.631e-08 0 -0.219888 -0.148887 0.00185595 
182 1 0.00046 0.00206685 0.00294726 -3.17454e-05 -0.00012115 -1.54063e-05 0 1.80538e-08 9.41414e-09 0 0.0742757 0.0927407 0.0391655 
24 1 0.00052 0.00232302 0.00211984 -1.41959e-06 -7.93039e-05 -1.11218e-05 0 1.92456e-08 1.13316e-08 0 -0.0685171 -0.0423647 0.0413122 
189 1 0.00044 0.0029243 0.00285064 3.50109e-05 -0.000109902 -6.70184e-06 0 1.53611e-08 7.86411e-09 0 -0.0457185 -0.107187 0.00947045 
66 1 0.00048 0.00325579 0.00201932 -3.46654e-05 -7.50831e-05 5.47257e-06 0 1.3298e-08 6.89159e-09 0 0.0594297 0.0466995 0.0115727 
22 1 0.00054 0.00386509 0.0029775 -3.02218e-05 -0.000114763 2.89229e-06 0 3.32161e-08 1.25832e-08 0 -0.0834873 0.0743765 0.0693519 
70 1 0.00048 0.00412805 0.00209051 3.70504e-05 -6.91865e-05 6.59431e-06 0 1.09662e-08 4.37468e-09 0 0.0747901 -0.033071 0.00457045 
164 1 0.00048 0.00498246 0.00300204 3.07542e-05 -0.000118034 -1.73001e-05 0 1.14264e-08 1.41426e-08 0 0.0159739 -0.0619318 0.104871 
69 1 0.00048 0.00497546 0.00196055 -2.23732e-05 -6.51854e-05 6.34879e-06 0 8.23344e-09 -2.96221e-11 0 -0.0490699 0.0308839 0.0243037 
89 1 0.00044 0.00564413 0.00243819 -2.11247e-06 -8.56275e-05 3.97681e-06 0 4.01909e-09 4.91273e-09 0 0.0784758 -0.013548 -0.0205435 
44 1 0.0005 0.00623503 0.00307366 -3.67063e-05 -0.000111845 4.17823e-06 0 1.1926e-08 6.34196e-09 0 -0.0468941 0.0338486 0.0499974 
80 1 0.00046 0.00642265 0.00213328 3.11799e-05 -8.81822e-05 3.20601e-06 0 5.24174e-09 4.4149e-09 0 -0.0670667 0.00690935 0.0337188 
93 1 0.00042 0.00698901 0.00270998 -2.75116e-05 -0.000100592 1.25293e-05 0 4.30363e-09 2.15661e-09 0 0.0650327 -0.0316429 -0.0129113 
64 1 0.00048 0.00731649 0.00191086 4.80419e-05 -8.64833e-05 2.02706e-05 0 2.04623e-09 2.18443e-09 0 -0.0793637 0.0486211 0.0164834 
90 1 0.00044 0.00772547 0.00291309 1.77683e-05 -0.000108841 6.27883e-06 0 6.47329e-09 -3.04892e-11 0 0.0587496 0.0651146 0.0310486 
1 1 0.00058 0.00828524 0.00219892 -3.97226e-05 -9.71717e-05 9.74925e-06 0 6.39348e-09 -6.31963e-09 0 -0.0273367 -0.072546 -0.000203267 
31 1 0.00052 0.00876336 0.0031191 4.55657e-05 -0.000107768 1.09142e-05 0 8.77003e-09 -5.75984e-09 0 -0.00876855 0.0199149 0.00407729 
82 1 0.00046 0.00924618 0.00230701 1.80717e-05 -0.000102054 -6.80646e-06 0 4.37005e-09 -1.26978e-09 0 -0.0508773 0.0868432 -0.02784 
14 1 0.00054 0.00980279 0.00312828 -3.93388e-05 -0.000120072 -1.94372e-06 0 1.08004e-08 -1.71365e-09 0 0.0367608 -0.0160301 0.011273 
39 1 0.0005 0.0101348 0.00222362 2.40231e-05 -9.63042e-05 -1.33481e-05 0 7.06002e-09 1.23827e-09 0 -0.00294106 -0.0794822 0.0212307 
162 1 0.00048 0.0107368 0.00309829 2.716e-05 -0.000116949 -6.80433e-06 0 7.09616e-09 2.56881e-10 0 -0.031805 0.0180721 -0.00108926 
55 1 0.0005 0.0110951 0.00228188 -4.78087e-05 -9.63586e-05 -9.43267e-06 0 7.95306e-09 2.03238e-09 0 -0.011144 0.0834461 0.0315114 
27 1 0.00052 0.0116578 0.0030966 -4.25165e-05 -0.000122513 -6.45044e-06 0 1.07478e-08 3.84282e-09 0 0.0509302 -0.0169108 0.00372897 
45 1 0.0005 0.012058 0.00222649 -4.01526e-05 -8.63619e-05 8.52857e-06 0 5.60892e-09 1.38738e-09 0 0.00677899 -0.0936025 0.0559525 
26 1 0.00052 0.0126251 0.00312592 2.94528e-05 -0.000131168 -2.0855e-05 0 1.32793e-08 8.58782e-09 0 0.0143174 0.0184402 -0.00353023 
10 1 0.00056 0.0131061 0.00222993 4.21294e-05 -8.76665e-05 -8.96316e-06 0 8.30433e-09 8.07981e-09 0 0.00110746 -0.0450991 0.0850596 
36 1 0.00052 0.0136528 0.00314436 2.4953e-06 -0.000135559 -7.97768e-06 0 1.46769e-08 8.22285e-09 0 -0.011272 -0.00222738 0.0127756 
87 1 0.00044 0.0141661 0.00242042 2.35941e-05 -0.000110002 -9.19369e-07 0 5.56595e-09 4.9695e-09 0 0.0184011 -0.00332595 0.0531299 
41 1 0.0005 0.0146297 0.00314178 -2.89305e-05 -0.000136866 6.45875e-06 0 1.44368e-08 7.43616e-09 0 -0.014062 0.00319113 0.0173574 
57 1 0.0005 0.0150803 0.00224365 3.21045e-05 -9.52724e-05 1.98215e-05 0 3.82239e-09 6.98387e-09 0 -0.0135794 0.00504646 -0.00762569 
21 1 0.00054 0.0156146 0.00308792 2.08022e-05 -0.000123384 3.31745e-05 0 1.31304e-08 3.35964e-09 0 0.00777057 -0.00641519 0.0508908 
76 1 0.00046 0.0160043 0.00209169 1.69816e-05 -9.78974e-05 3.00833e-05 0 2.22991e-09 1.8108e-09 0 -0.000571791 -0.00365009 0.0723886 
71 1 0.00048 0.0165021 0.00284368 -1.31875e-05 -0.000115091 2.8969e-05 0 8.11295e-09 2.29261e-09 0 -0.00593668 0.00765525 -0.0512648 
81 1 0.00046 0.0169265 0.00207833 -2.13541e-05 -0.000118653 9.07e-06 0 1.17446e-08 6.62281e-09 0 0.0809952 -0.140136 0.0142023 
63 1 0.00048 0.0173564 0.0030224 -2.48084e-05 -0.000116007 -3.86357e-06 0 9.17179e-09 1.21387e-08 0 -0.0176502 -0.0177806 -0.0172036 
16 1 0.00054 0.0178626 0.00224463 7.17441e-06 -0.000117499 -5.05615e-07 0 1.73627e-08 1.48873e-08 0 -0.0468507 0.122418 0.00263207 
51 1 0.0005 0.018442 0.00302938 -3.11061e-05 -0.000120749 -2.69458e-06 0 1.33591e-08 1.35988e-08 0 0.0795613 -0.105676 -0.00238053 
37 1 0.00052 0.0188603 0.00220933 -6.697e-06 -0.00011954 -6.62369e-06 0 1.71251e-08 1.44625e-08 0 0.0365708 -0.129783 -0.00307799 
6 1 0.00056 0.0194321 0.00303925 1.88296e-05 -0.000116971 -1.62365e-05 0 1.88275e-08 2.408e-08 0 -0.0436317 0.0982072 0.00794934 
13 1 0.00054 0.0198508 0.00217807 2.40593e-05 -0.000124843 -4.58787e-05 0 2.31389e-08 2.89802e-08 0 -0.0639079 0.133436 -0.0732296 
11 1 0.00056 0.00131757 0.00346628 4.11056e-07 -0.000135579 -1.51388e-05 0 3.38312e-08 1.63599e-08 0 -0.171706 0.00272114 -0.00269266 
179 1 0.00046 0.00154148 0.0043803 -3.43082e-05 -0.000167597 -1.056e-05 0 2.15767e-08 8.16761e-09 0 0.215739 0.0311632 0.0645652 
160 1 0.00048 0.000518284 0.00405503 4.11872e-05 -0.000159655 -2.65362e-05 0 2.48761e-08 1.22152e-08 0 0.185243 0.0129982 0.0652477 
3 1 0.00058 0.000792498 0.00499964 1.15215e-05 -0.000195642 -2.06131e-05 0 4.71192e-08 1.83597e-08 0 -0.144518 -0.0498269 0.00378282 
62 1 0.00048 0.00225299 0.00383328 4.14547e-05 -0.000143817 -7.93233e-06 0 2.42271e-08 1.00119e-08 0 -0.087324 -0.109718 -0.00402378 
171 1 0.00048 0.00262662 0.00468341 2.79416e-05 -0.000188292 8.09442e-06 0 2.84716e-08 7.3388e-09 0 -0.0605073 -0.259476 0.107263 
178 1 0.00046 0.00313666 0.00368819 -1.57031e-06 -0.000142967 -3.61941e-06 0 2.27624e-08 8.56311e-09 0 0.0500934 0.11093 0.0327892 
163 1 0.00048 0.00359879 0.0047002 5.32063e-06 -0.000193583 -1.3535e-05 0 3.20688e-08 1.30568e-08 0 -0.0294124 -0.0862145 0.0697727 
155 1 0.0005 0.00401887 0.0039164 -2.6529e-06 -0.000158629 3.3627e-06 0 3.12743e-08 1.18356e-08 0 0.09873 -0.0538953 0.00183757 
103 1 0.00056 0.00458478 0.00494692 -3.58607e-05 -0.000198733 -3.27659e-06 0 4.9018e-08 1.69353e-08 0 -0.0296167 0.0602478 0.0133402 
108 1 0.00054 0.00499533 0.00397215 -2.13321e-05 -0.000171136 -6.33976e-06 0 4.09398e-08 1.79506e-08 0 -0.0141519 0.0468131 0.00370663 
106 1 0.00056 0.00566087 0.00479157 -4.97251e-05 -0.000190591 6.4236e-08 0 5.2178e-08 1.12342e-08 0 0.000582196 -0.0589476 0.0226749 
187 1 0.00046 0.00597099 0.00390427 -2.41619e-05 -0.000160984 1.03499e-06 0 2.1537e-08 5.98773e-09 0 0.0416135 -0.0404579 0.0395448 
116 1 0.00054 0.00667463 0.00459883 -2.57589e-05 -0.000177225 -8.86241e-08 0 4.15086e-08 2.29599e-09 0 0.0101691 0.0573034 -0.00122071 
138 1 0.0005 0.0070196 0.00365631 -4.22335e-05 -0.000145022 7.66885e-06 0 2.2776e-08 1.09347e-10 0 -0.00489981 -0.0822118 0.0179765 
95 1 0.00058 0.00774398 0.00462609 4.30556e-05 -0.000172906 4.6799e-06 0 4.94121e-08 -1.75511e-09 0 -0.00305525 -0.0455255 0.0349247 
61 1 0.00048 0.00795715 0.00368271 4.42331e-05 -0.000132699 7.64229e-06 0 1.86645e-08 -1.87029e-09 0 -0.00279733 0.0940781 0.0105887 
153 1 0.0005 0.00877377 0.00406024 -4.39636e-05 -0.00013361 2.11732e-05 0 2.02014e-08 -5.01646e-09 0 0.0155943 -0.0823835 0.047079 
38 1 0.0005 0.00979704 0.00487102 4.93343e-05 -0.00015267 4.39475e-05 0 2.84553e-08 -5.0061e-10 0 0.0562776 -0.116828 0.117301 
75 1 0.00046 0.0096057 0.00400114 4.05756e-05 -0.000118012 1.82817e-05 0 1.33639e-08 -3.73029e-10 0 -0.0673226 0.0956952 -0.0471473 
169 1 0.00048 0.00870612 0.00490741 -1.72291e-05 -0.000183418 2.31752e-05 0 2.91051e-08 -5.37567e-09 0 -0.018057 0.0487509 0.0352096 
191 1 0.00044 0.0104205 0.00387964 -3.72271e-05 -0.000121951 -8.25673e-06 0 8.95764e-09 1.2055e-09 0 0.0629623 -0.0985036 0.0130992 
166 1 0.00048 0.0107682 0.00467006 4.50596e-05 -0.000220305 9.20865e-06 0 1.63631e-08 4.38633e-09 0 -0.0437659 0.114897 0.216644 
88 1 0.00044 0.0112797 0.00394271 1.35023e-05 -0.000129457 1.90368e-05 0 7.70636e-09 2.33968e-09 0 -0.111465 0.102639 -0.00890883 
152 1 0.0005 0.0119337 0.00475666 3.81834e-05 -0.000180304 -4.45225e-05 0 2.17684e-08 6.02625e-09 0 0.0415705 0.0020096 0.0732723 
85 1 0.00044 0.0121394 0.00389441 3.14585e-06 -0.000135354 -2.35724e-05 0 7.92751e-09 4.0158e-09 0 -0.0516164 0.0204117 0.0118794 
151 1 0.0005 0.0129033 0.00492945 -2.4127e-05 -0.000192167 -2.20087e-05 0 2.38372e-08 4.37705e-09 0 -0.00736927 0.00419354 0.0287715 
99 1 0.00056 0.0131291 0.00399556 1.0814e-05 -0.000154291 -1.74456e-05 0 2.5001e-08 1.06992e-08 0 0.00510094 -0.00200257 0.0324029 
174 1 0.00046 0.0137635 0.00483798 -4.51984e-05 -0.000188567 -8.15839e-06 0 1.9126e-08 5.28993e-09 0 -0.0246289 0.000552555 0.024967 
110 1 0.00054 0.0141854 0.00402785 1.00341e-06 -0.000161998 -1.51712e-06 0 2.28585e-08 8.38146e-09 0 0.0111717 0.00759807 0.0219458 
126 1 0.00052 0.0147079 0.00489077 6.87793e-06 -0.000189519 3.60467e-07 0 2.76128e-08 7.47244e-09 0 0.00305331 0.00435498 0.0195942 
25 1 0.00052 0.015154 0.0039582 1.87838e-05 -0.000163193 1.49941e-05 0 2.16891e-08 8.0191e-09 0 0.00358325 -0.00981104 0.025785 
47 1 0.0005 0.0160797 0.00415516 4.33922e-05 -0.000176 9.14258e-06 0 2.30667e-08 1.12189e-08 0 -0.00562906 0.00480604 -0.0252138 
79 1 0.00046 0.0167772 0.0046895 2.18197e-05 -0.000178303 -3.45025e-06 0 1.84622e-08 1.1737e-08 0 -0.0298871 -0.0300443 0.0224155 
56 1 0.0005 0.0170289 0.00386852 -2.12721e-05 -0.00017728 -1.85543e-05 0 2.32548e-08 1.81667e-08 0 0.0380209 -0.00172148 -0.0383291 
77 1 0.00046 0.0176608 0.00460885 6.56493e-06 -0.000186729 -1.00425e-05 0 1.96329e-08 1.31845e-08 0 0.0027438 0.0297631 -0.0111952 
130 1 0.00052 0.0179612 0.00377772 9.36883e-06 -0.000159241 -1.10012e-05 0 2.24509e-08 1.884e-08 0 -0.00763918 -0.00446684 0.0616798 
2 1 0.00058 0.0186957 0.00453891 3.03201e-05 -0.000187026 -1.75923e-05 0 4.03654e-08 2.88848e-08 0 -0.0168392 -0.02156 -0.0169619 
73 1 0.00046 0.0194075 0.00392561 1.43967e-05 -0.000162189 -1.67491e-05 0 1.63386e-08 1.41276e-08 0 0.0431672 0.0110854 0.0740807 
23 1 0.00054 0.0197511 0.00478952 -2.66714e-05 -0.000190829 -2.43698e-05 0 3.44349e-08 2.29138e-08 0 -0.0195865 0.0173532 -0.00335459 
135 1 0.0005 0.00119674 0.00595059 1.46596e-05 -0.000245914 -1.90832e-05 0 2.82868e-08 8.15404e-09 0 0.144167 0.0558284 0.0825689 
197 1 0.00042 0.000324238 0.00650301 -3.99128e-05 -0.000285147 -2.52118e-06 0 1.75672e-08 7.09307e-09 0 -0.0118001 0.0611676 0.0754194 
58 1 0.0005 8.55004e-05 0.00571636 -3.26099e-05 -0.000221378 -2.6599e-05 0 3.38202e-08 1.48631e-08 0 0.0772274 0.154248 0.0621648 
139 1 0.0005 0.00181307 0.00521798 -7.07934e-06 -0.000209989 -1.13891e-06 0 3.23438e-08 7.66003e-09 0 -0.188424 -0.0185648 0.0274464 
109 1 0.00054 0.00213238 0.00645922 -2.06108e-05 -0.000267949 -4.86124e-06 0 3.2845e-08 2.13922e-09 0 -0.0170958 0.0270352 0.0489018 
156 1 0.0005 0.00263028 0.00563276 3.54227e-05 -0.000234875 3.87406e-06 0 3.47192e-08 5.16365e-09 0 0.0416434 -0.0543064 -0.00206353 
175 1 0.00046 0.00312797 0.00641124 -2.96496e-05 -0.000256409 -6.12284e-06 0 2.22183e-08 3.795e-09 0 -0.0697678 0.00611996 0.0412709 
114 1 0.00054 0.00358354 0.00562863 1.90715e-05 -0.000231793 -3.49844e-06 0 4.68983e-08 1.69596e-08 0 0.0267039 0.0491039 0.000705808 
185 1 0.00046 0.00444306 0.00591232 1.72497e-05 -0.000229161 -2.97516e-06 0 2.95005e-08 9.71232e-09 0 0.0278422 -0.0374752 0.00854764 
102 1 0.00056 0.00535677 0.0057612 2.50127e-05 -0.000224485 -8.15989e-07 0 5.30638e-08 4.36845e-09 0 0.0113206 0.0210276 0.028778 
192 1 0.00044 0.00595096 0.00650212 -4.27825e-05 -0.000252956 9.88645e-07 0 2.26179e-08 -5.86256e-10 0 0.00508845 0.0107168 -0.00777825 
188 1 0.00044 0.00629228 0.00553439 2.43943e-05 -0.000210565 -3.61823e-06 0 2.56187e-08 2.47897e-09 0 -0.0776085 -0.0119979 -0.0328443 
149 1 0.0005 0.00679446 0.00637461 -3.07296e-05 -0.000248248 -5.63246e-06 0 3.44203e-08 -4.28363e-09 0 -0.0147205 -0.0152957 0.0134355 
131 1 0.00052 0.00720294 0.00549544 -2.4969e-05 -0.00021129 -6.30069e-06 0 4.05546e-08 -2.29172e-09 0 0.0234579 0.00803104 0.0403032 
237 1 0.00052 0.00770209 0.00633548 1.47771e-05 -0.000243128 6.66256e-06 0 3.99981e-08 -3.275e-09 0 -0.00254489 0.0220063 0.0249962 
159 1 0.00048 0.00817603 0.00555972 -2.62417e-05 -0.000216864 1.33245e-05 0 3.24285e-08 -1.98903e-09 0 -0.0180509 -0.00176451 0.0376681 
125 1 0.00052 0.00863724 0.0063315 -3.20614e-05 -0.000236944 1.18493e-05 0 4.16012e-08 -6.41592e-09 0 -0.000838285 -0.0264978 -0.0126048 
136 1 0.0005 0.00925563 0.00565972 -4.70071e-05 -0.000221892 2.27181e-05 0 3.62856e-08 -3.1362e-09 0 0.0399771 -0.0163017 0.0446322 
170 1 0.00048 0.0101144 0.00574799 4.476e-05 -0.000233326 7.92292e-05 0 2.99936e-08 6.9442e-09 0 -0.0995576 0.0109494 0.0775799 
167 1 0.00048 0.0109287 0.00555243 -5.06646e-06 -0.000242754 1.9354e-05 0 2.81962e-08 4.68314e-09 0 0.0645024 -0.00358248 -0.201663 
123 1 0.00052 0.0113841 0.00651165 -4.22073e-05 -0.000244568 -2.57205e-05 0 3.9339e-08 1.61558e-09 0 0.0278415 0.0449609 -0.0723197 
168 1 0.00048 0.0117564 0.00566719 2.60985e-05 -0.000235759 -5.31375e-05 0 2.78973e-08 2.07312e-09 0 -0.0476001 0.00690395 0.0364429 
150 1 0.0005 0.0123348 0.00640532 1.83575e-05 -0.000246676 -4.15324e-05 0 3.39309e-08 -1.29741e-09 0 0.00705628 -0.0491165 0.0169715 
196 1 0.00042 0.0125195 0.00559858 -2.28987e-05 -0.000223946 -3.45254e-05 0 1.69312e-08 6.51595e-10 0 0.00952972 -0.00791205 0.0344026 
157 1 0.0005 0.0132156 0.00609367 2.90979e-05 -0.000235859 -2.26988e-05 0 3.0901e-08 -7.41941e-10 0 0.0259371 0.0330923 0.0240527 
96 1 0.00058 0.0141556 0.0057718 4.28851e-05 -0.000217929 -9.8733e-06 0 4.43926e-08 8.06559e-09 0 0.011231 -0.037968 0.0160634 
115 1 0.00054 0.0151785 0.00589387 -1.46308e-05 -0.000221247 -6.79273e-06 0 3.57859e-08 8.49109e-09 0 -0.0255183 0.0412809 0.0102575 
143 1 0.0005 0.0156784 0.00502183 -7.56683e-06 -0.000190688 8.57893e-06 0 2.53692e-08 8.51781e-09 0 0.00262661 -0.000278961 0.0300537 
141 1 0.0005 0.0160561 0.00623926 -4.83823e-05 -0.000226743 7.52477e-06 0 2.76588e-08 6.13806e-09 0 0.00340576 -0.0552503 0.057167 
146 1 0.0005 0.016516 0.00551945 2.89194e-05 -0.000196045 6.01558e-06 0 2.68537e-08 1.21957e-08 0 0.0272165 0.0149104 -0.00182238 
195 1 0.00044 0.016988 0.00632271 3.21564e-05 -0.000244114 -1.75003e-06 0 1.99682e-08 9.57786e-09 0 0.0414117 0.0925679 0.0883817 
190 1 0.00044 0.0173182 0.00537654 -4.85919e-05 -0.000186637 -3.31253e-06 0 1.73654e-08 1.0623e-08 0 -0.00869756 -0.0201308 -0.0130578 
101 1 0.00056 0.0180763 0.00628252 -1.12464e-05 -0.000246243 -9.62896e-06 0 3.80463e-08 1.85408e-08 0 -0.0178811 0.0184712 0.102143 
147 1 0.0005 0.0181425 0.00535595 3.12852e-05 -0.000184092 -1.17001e-05 0 2.47799e-08 1.60437e-08 0 0.0221429 0.0162604 0.00296966 
172 1 0.00048 0.0192917 0.00636044 2.46256e-05 -0.000251703 -2.12911e-05 0 8.08259e-09 1.93201e-08 0 -0.0226944 -0.0417895 0.160212 
144 1 0.0005 0.0190578 0.00549124 -4.44854e-05 -0.000181716 -2.49407e-05 0 2.31524e-08 1.9671e-08 0 0.00876473 -0.00915932 -0.0119262 
194 1 0.00044 0.00126955 0.00681438 -2.73404e-05 -0.000294051 -1.6039e-05 0 1.51299e-08 2.95662e-09 0 -0.130485 0.0228219 0.00181957 
107 1 0.00054 0.00114647 0.00795923 -3.38667e-05 -0.000313329 -5.60028e-06 0 2.80236e-08 3.89959e-09 0 0.0111971 0.0245153 -0.000802318 
193 1 0.00044 0.000605319 0.00726002 -4.2113e-05 -0.000309057 -5.0228e-06 0 1.61843e-08 5.27958e-09 0 0.0330407 0.0277705 -0.001903 
211 1 0.00056 0.000114779 0.00807624 1.49646e-05 -0.000317334 -2.14613e-06 0 3.35325e-08 8.1993e-09 0 -0.0066252 -0.0292939 0.00869053 
137 1 0.0005 0.00190824 0.00742556 7.74856e-06 -0.000303168 -1.02266e-05 0 2.10114e-08 -1.91757e-11 0 0.0330329 -0.062962 0.0142448 
177 1 0.00046 0.00206058 0.00829875 5.5329e-07 -0.00031878 -8.27146e-06 0 1.4834e-08 -1.12769e-09 0 -0.0340352 -0.0200053 0.0109872 
118 1 0.00054 0.00283924 0.00725626 3.67542e-05 -0.000292231 -4.13864e-06 0 2.61555e-08 2.84649e-09 0 0.042841 0.036175 0.0155938 
273 1 0.00048 0.00293342 0.0082 1.2865e-05 -0.000314043 -1.97678e-06 0 1.50628e-08 -1.17819e-09 0 -0.0292369 0.024766 0.020874 
132 1 0.00052 0.00375174 0.00772302 -4.70278e-05 -0.000300517 -2.40312e-06 0 1.98261e-08 -3.17132e-09 0 0.000710355 -0.0128697 0.00223795 
127 1 0.00052 0.0040029 0.00673769 -1.13161e-05 -0.000264844 5.49108e-06 0 3.17693e-08 1.20026e-08 0 0.00601653 -0.0151548 0.0334203 
142 1 0.0005 0.00472641 0.00768252 1.72877e-05 -0.000296448 -7.00367e-06 0 1.87103e-08 -9.72607e-09 0 0.00455247 0.0157144 0.0103002 
97 1 0.00058 0.00505858 0.006774 -4.33679e-05 -0.000264612 -9.16202e-06 0 4.55796e-08 -9.93399e-09 0 -0.0145573 0.00270661 0.0414565 
129 1 0.00052 0.00569265 0.00765949 7.98975e-06 -0.000290344 -9.35276e-07 0 2.4396e-08 -1.05827e-08 0 0.00324205 -0.0180218 0.00739523 
145 1 0.0005 0.00646895 0.00722426 -4.89198e-05 -0.000271547 -2.71469e-06 0 2.99254e-08 -5.44563e-09 0 0.0131689 0.00792568 0.0173425 
117 1 0.00054 0.00704582 0.00808611 -1.8846e-05 -0.000308883 -9.07602e-07 0 3.18801e-08 -1.21004e-08 0 -0.000306237 0.00592422 0.0333002 
158 1 0.00048 0.00736578 0.00719534 -2.80691e-05 -0.000274005 2.13348e-06 0 2.80745e-08 -5.22033e-09 0 -0.000473468 -0.00535881 0.0192423 
303 1 0.00042 0.00792783 0.00787558 -4.34141e-05 -0.000302758 1.22764e-05 0 1.64176e-08 -2.83138e-09 0 -0.0148882 -0.00524644 0.0195578 
184 1 0.00046 0.00824599 0.00712281 2.59556e-05 -0.000268603 1.64979e-05 0 2.73795e-08 -2.92341e-09 0 0.0186275 -0.000620495 0.0500742 
111 1 0.00054 0.00884842 0.0078468 -3.81694e-05 -0.000312722 3.34028e-05 0 3.33457e-08 2.78385e-09 0 -0.012516 0.00558359 0.0389017 
210 1 0.00056 0.00941923 0.00692288 -2.37608e-06 -0.000266421 4.10376e-05 0 4.52918e-08 1.52686e-09 0 0.0111877 0.0352247 0.131016 
233 1 0.00052 0.00983834 0.00782752 -1.57412e-05 -0.000336339 3.47846e-05 0 2.55499e-08 2.38772e-09 0 0.00485827 -0.00776715 -0.0251326 
100 1 0.00056 0.0104092 0.00667736 -1.47472e-05 -0.000235489 7.97446e-05 0 5.22026e-08 1.72739e-08 0 0.0699411 -0.0573036 -0.0754095 
213 1 0.00056 0.0107472 0.00823491 4.979e-05 -0.000335858 -3.09226e-05 0 3.55679e-08 -9.33902e-09 0 0.000648279 0.00984576 -0.0649633 
199 1 0.00042 0.0110315 0.00735991 2.22644e-05 -9.31862e-05 1.50485e-05 0 3.37315e-08 1.59187e-09 0 -0.104064 0.0791788 -0.294196 
120 1 0.00052 0.0117262 0.00821033 -4.55597e-05 -0.000322062 -4.93611e-05 0 3.32105e-08 -1.09115e-08 0 -0.00228212 -0.0133381 0.0321121 
112 1 0.00054 0.0120418 0.00730092 -4.5975e-05 -0.000271886 -4.29102e-05 0 4.34117e-08 -5.92852e-09 0 0.00813442 0.00118434 0.0567185 
161 1 0.00048 0.01286 0.0078525 4.23607e-05 -0.000299981 -2.77917e-05 0 2.9474e-08 -4.75558e-09 0 0.0183478 0.00833915 0.0167541 
186 1 0.00046 0.0130239 0.00699307 4.20701e-05 -0.000270187 -2.74138e-05 0 2.75138e-08 -1.53293e-09 0 -0.0330341 0.0272919 0.0355958 
104 1 0.00056 0.0138535 0.00781637 -5.04024e-06 -0.000296906 -1.82992e-05 0 4.83952e-08 -5.28715e-09 0 0.00543541 -0.00454181 0.0275397 
148 1 0.0005 0.0139076 0.00679945 1.64328e-05 -0.00026657 -2.11531e-05 0 3.5028e-08 1.77977e-09 0 -0.00749182 -0.0139926 -0.000711899 
154 1 0.0005 0.0148567 0.00792245 -1.6913e-05 -0.000301064 -8.8009e-06 0 3.46075e-08 -1.57512e-09 0 -0.00843611 0.00226537 0.0149194 
98 1 0.00058 0.0149111 0.00691209 -4.21217e-05 -0.000265515 -1.28482e-05 0 5.26843e-08 5.99315e-09 0 0.00826081 0.0106693 0.0378469 
128 1 0.00052 0.0158252 0.00811097 -3.94419e-05 -0.00030752 1.25316e-06 0 3.85106e-08 -1.1722e-09 0 -0.00236463 -0.000375112 0.025962 
121 1 0.00052 0.0159188 0.00713289 -1.21974e-05 -0.000278204 4.53409e-06 0 3.75655e-08 2.75373e-09 0 0.00401946 -0.00708981 0.0310925 
124 1 0.00052 0.0166871 0.00770131 -3.70828e-05 -0.000297017 3.7614e-06 0 3.6108e-08 6.15778e-09 0 -0.00679832 0.00205811 -0.0129809 
119 1 0.00054 0.017492 0.00715075 -3.33274e-05 -0.00029762 -1.15858e-05 0 4.1041e-08 1.59773e-08 0 0.0036701 0.00320722 -0.00722374 
165 1 0.00048 0.0181592 0.00805594 -3.83096e-05 -0.000318374 4.09325e-06 0 2.70583e-08 3.91138e-09 0 -0.0114015 -0.0187986 0.000366308 
113 1 0.00054 0.0185084 0.00717483 -2.02095e-05 -0.000305494 5.80783e-06 0 3.90574e-08 1.0126e-08 0 0.0218935 -0.00547009 0.0228258 
173 1 0.00048 0.0191804 0.0077818 -4.84051e-05 -0.000314217 3.75091e-06 0 2.38379e-08 5.41714e-09 0 0.00478704 0.0338007 -0.00271216 
140 1 0.0005 0.0197602 0.00712987 -3.46879e-05 -0.000312139 -1.59556e-06 0 2.5479e-08 8.68317e-09 0 -0.015772 -0.0217103 -0.0103476 
215 1 0.00054 0.00160395 0.0091502 2.66777e-05 -0.000334132 -4.29824e-06 0 2.30343e-08 -1.47145e-09 0 0.0235685 -0.00130096 0.000714213 
301 1 0.00042 0.000807263 0.0087584 -3.96098e-06 -0.00032833 -2.13903e-06 0 1.26011e-08 1.46169e-09 0 -0.0214988 0.000513397 0.0135025 
248 1 0.0005 0.000737457 0.00962903 -1.72888e-05 -0.00034013 -7.21274e-07 0 1.9741e-08 7.30649e-10 0 0.00816112 -0.00488052 -0.000990627 
229 1 0.00052 0.002324 0.00997634 2.41907e-05 -0.00034964 -3.89154e-06 0 1.73012e-08 -5.90647e-09 0 -0.0114077 0.00725858 0.004754 
236 1 0.00052 0.00258654 0.00906495 4.87165e-05 -0.000332309 -4.37103e-06 0 1.83039e-08 -3.49722e-09 0 0.0142773 -0.00159397 0.0129582 
291 1 0.00046 0.00323498 0.00972713 7.50784e-06 -0.000344214 8.37847e-07 0 1.21791e-08 -4.59482e-09 0 -0.0205869 -0.0039283 0.0235548 
286 1 0.00046 0.00348301 0.00889121 -7.08428e-06 -0.000325379 -1.93682e-06 0 1.26945e-08 -4.68762e-09 0 0.0289096 -0.00924496 -0.00284441 
234 1 0.00052 0.00419683 0.00954441 6.12283e-06 -0.000340203 -2.17462e-06 0 1.72132e-08 -1.06992e-08 0 -0.00324287 0.0130967 0.0286535 
201 1 0.00058 0.00436269 0.00858029 1.74262e-06 -0.000315016 -4.1627e-06 0 2.67265e-08 -1.42943e-08 0 -0.00478205 0.0004033 0.0123018 
265 1 0.00048 0.00517252 0.00943775 -2.81666e-05 -0.000338591 4.30431e-06 0 1.35623e-08 -9.68824e-09 0 -0.00454738 -0.00987976 0.013296 
134 1 0.00052 0.0053585 0.00853103 -1.04316e-05 -0.000313673 3.09356e-06 0 2.02565e-08 -1.27283e-08 0 0.00446284 0.00128007 0.0220155 
247 1 0.0005 0.00611955 0.00937709 9.49774e-06 -0.000336835 6.87167e-06 0 1.64423e-08 -1.24922e-08 0 0.00554319 0.00594013 0.0161458 
198 1 0.00042 0.00623869 0.00848881 -4.45245e-05 -0.000319246 1.19919e-07 0 1.15372e-08 -7.87174e-09 0 -0.00840659 -0.00279588 -0.019694 
264 1 0.00048 0.00695048 0.00902692 3.54547e-06 -0.000332528 6.25362e-06 0 1.55503e-08 -9.1902e-09 0 -0.000318987 -0.00777275 0.00374576 
232 1 0.00052 0.00741225 0.0098704 -2.7703e-05 -0.000350264 1.78447e-05 0 1.86457e-08 -7.67119e-09 0 -0.00169939 0.00443425 0.0224244 
176 1 0.00046 0.00779481 0.00871457 -4.92713e-05 -0.000330482 1.42869e-05 0 1.64757e-08 -3.76224e-09 0 0.0121199 0.0032917 0.0258337 
274 1 0.00048 0.00820895 0.00951227 1.26179e-05 -0.000343558 1.8738e-05 0 1.5715e-08 -3.37934e-09 0 -0.00894299 -0.00384473 -0.00865939 
244 1 0.0005 0.00871417 0.00878985 4.93873e-05 -0.000337492 2.17636e-05 0 2.17264e-08 -6.49672e-10 0 0.0123806 -0.00192102 0.0089594 
228 1 0.00052 0.00910838 0.00970349 -4.18982e-05 -0.000348566 1.34749e-05 0 2.06555e-08 6.70237e-10 0 -0.00794733 0.0052627 0.0167351 
203 1 0.00058 0.00972496 0.00886046 -9.33208e-06 -0.000334242 1.64966e-05 0 3.7257e-08 2.98813e-09 0 -0.00271019 0.00199251 -0.0116088 
225 1 0.00054 0.0106775 0.00928931 -3.72943e-05 -0.000325851 -1.87265e-05 0 3.59854e-08 -7.88716e-09 0 -0.00215274 -0.00205134 -0.0133636 
284 1 0.00046 0.0113829 0.0098934 1.32074e-05 -0.000342905 -2.77224e-05 0 2.33513e-08 -1.13734e-08 0 -0.00117394 -0.00444249 0.0133855 
281 1 0.00046 0.0116208 0.00907994 3.24679e-05 -0.000335901 -3.61164e-05 0 2.31259e-08 -9.62153e-09 0 -0.000186436 0.0055797 -0.00580332 
209 1 0.00056 0.0123069 0.00976049 -1.82378e-05 -0.000343289 -2.94567e-05 0 4.37196e-08 -1.93843e-08 0 0.0111445 0.0028465 0.00754192 
105 1 0.00056 0.0125589 0.00876128 4.17083e-05 -0.000328218 -3.04426e-05 0 4.38765e-08 -1.49395e-08 0 -0.0150451 0.00201289 0.0183059 
302 1 0.00042 0.0132238 0.00962523 2.0062e-05 -0.00034215 -2.41954e-05 0 1.88819e-08 -8.30794e-09 0 0.00322295 -0.00251411 0.0166895 