ITEM: TIMESTEP
400780000
ITEM: NUMBER OF ATOMS
400
ITEM: BOX BOUNDS pp ff ff
0 0.02
0 0.04
-0.00065 0.00065
ITEM: ATOMS id type radius x y z vx vy vz fx fy fz omegax omegay omegaz 
74 1 0.00046 0.0013274 0.000444138 3.36586e-05 -3.1581e-05 -8.34567e-06 0 1.48324e-08 2.93861e-09 0 -0.00724847 -0.0569211 0.042256 
35 1 0.00052 0.000913195 0.00128498 -1.66342e-05 -4.2806e-05 1.20036e-05 0 3.89067e-08 -4.46651e-09 0 0.00067024 0.062431 -0.0545969 
7 1 0.00056 0.000242687 0.000443372 -3.64628e-05 5.48178e-06 -2.002e-06 0 1.5666e-08 -4.37429e-09 0 3.46194e-07 0.022371 -0.0112848 
43 1 0.0005 0.00183586 0.00127892 5.09221e-06 -4.14597e-05 -1.84072e-05 0 3.01817e-08 8.09634e-09 0 0.000153327 -0.0656133 0.00967727 
30 1 0.00052 0.00226878 0.000435853 -1.24497e-05 -1.9682e-05 -3.8265e-06 0 1.62746e-08 3.63092e-09 0 0.00431456 0.0511261 0.0188305 
67 1 0.00048 0.00274205 0.00128793 4.63423e-05 -4.0321e-05 -4.5023e-06 0 2.64844e-08 3.36219e-09 0 0.00867143 0.0699199 0.0305524 
17 1 0.00054 0.00324768 0.000515695 4.67087e-05 -1.86065e-05 1.63268e-06 0 2.03949e-08 3.37747e-09 0 -0.00618815 -0.0521656 0.0116005 
86 1 0.00044 0.00374602 0.00129125 -1.5404e-05 -3.92562e-05 6.6293e-06 0 2.25608e-08 1.52926e-09 0 -0.0507481 -0.029859 0.0202732 
84 1 0.00044 0.00460705 0.00119541 -2.0603e-05 -3.26495e-05 2.26e-06 0 1.616e-08 8.65638e-09 0 0.0406241 0.0250237 0.0205111 
54 1 0.0005 0.00417376 0.000417272 3.04549e-05 -1.28714e-05 7.21202e-07 0 1.12012e-08 3.72747e-09 0 0.00260146 0.058568 0.00646568 
46 1 0.0005 0.00511724 0.000469642 4.04467e-05 -1.60397e-05 1.84313e-06 0 1.18705e-08 8.17665e-09 0 0.00197464 -0.0632349 0.0124424 
15 1 0.00054 0.00567132 0.0013081 -2.65834e-05 -3.68631e-05 2.545e-06 0 3.44907e-08 1.82103e-08 0 -0.0249915 0.0521308 0.00626426 
72 1 0.00048 0.00664349 0.00128894 -2.02466e-06 -4.20479e-05 8.1083e-06 0 2.78648e-08 7.47603e-09 0 0.0729533 -0.0720302 0.0462131 
78 1 0.00046 0.00602275 0.000418534 -1.20537e-05 -1.35031e-05 3.76193e-06 0 8.24739e-09 4.40863e-09 0 -0.00840199 0.0653766 0.0155407 
52 1 0.0005 0.00693214 0.000444768 3.91278e-05 -9.0408e-06 7.63115e-06 0 7.47456e-09 1.37663e-09 0 -0.0102267 -0.0593998 0.0119782 
8 1 0.00056 0.00824572 0.00117596 -1.82355e-06 -3.75964e-05 2.41415e-06 0 4.42545e-08 1.68917e-08 0 0.017481 0.0109398 0.0935961 
92 1 0.00042 0.00779488 0.00036469 3.24564e-05 5.78354e-07 -4.15101e-06 0 1.01858e-09 5.42142e-09 0 0.00705662 0.0660595 -0.0258605 
60 1 0.00048 0.00876683 0.000397727 -3.28708e-05 1.93044e-06 1.08583e-05 0 6.29893e-10 -1.27745e-09 0 0.00128263 -0.0521627 -0.0163062 
32 1 0.00052 0.00930568 0.00138586 3.24568e-05 -5.83527e-05 -1.28584e-05 0 5.15982e-08 2.54267e-08 0 0.0821746 -0.22781 0.0883037 
20 1 0.00054 0.00975806 0.000490902 -2.76781e-05 -8.36697e-06 -3.77211e-07 0 9.107e-09 3.04407e-09 0 0.00109992 0.0476437 0.00538642 
28 1 0.00052 0.0103888 0.00131221 -4.92787e-05 -4.39689e-05 -7.99685e-06 0 2.02896e-08 7.09894e-09 0 0.0426821 0.00155565 0.0438426 
34 1 0.00052 0.0113808 0.00139183 -4.32784e-06 -4.81773e-05 -5.19289e-07 0 1.66274e-08 -1.31728e-08 0 0.00508392 0.000312966 0.0178683 
59 1 0.00048 0.010766 0.000443973 -3.96086e-06 -1.29653e-05 -2.42128e-06 0 4.55466e-09 -6.60572e-10 0 -0.0111577 -0.046964 0.0134106 
9 1 0.00056 0.0117811 0.000485299 -1.32742e-05 -1.98298e-05 9.22537e-07 0 7.67874e-12 -1.97306e-08 0 -0.00699794 0.0284159 0.0232875 
19 1 0.00054 0.0124084 0.00132886 1.95463e-05 -4.23483e-05 7.39665e-06 0 -2.97858e-09 -3.43221e-08 0 0.028628 -0.00192838 0.0192421 
68 1 0.00048 0.0127824 0.000442294 1.3181e-05 -1.97147e-05 4.06593e-06 0 3.41359e-09 -8.01174e-09 0 -0.00752764 -0.0289013 0.0106624 
12 1 0.00056 0.0134358 0.00122572 3.75182e-05 -3.66744e-05 4.81379e-06 0 -4.26385e-09 2.40845e-09 0 -0.0113357 0.00179341 0.000172518 
94 1 0.00042 0.0136149 0.000329506 1.89547e-05 -1.83222e-05 5.03115e-06 0 3.82113e-09 -1.99304e-10 0 0.00576075 0.0252594 0.0290907 
48 1 0.0005 0.0143552 0.00161899 1.99029e-05 -5.39729e-05 1.04457e-05 0 1.58752e-08 2.24552e-09 0 -0.0121675 -0.0179613 0.060089 
33 1 0.00052 0.0143662 0.000726822 -4.71808e-05 -2.63575e-05 5.209e-06 0 7.72199e-09 9.58957e-09 0 0.0155508 -0.00172956 -0.00937128 
83 1 0.00046 0.0156493 0.00128516 1.72248e-05 -4.75354e-05 6.54576e-06 0 4.19767e-08 7.10394e-09 0 -0.135408 -0.148926 0.026559 
29 1 0.00052 0.0152286 0.00042655 3.7231e-06 -1.90955e-05 3.99761e-06 0 1.75616e-08 8.95241e-09 0 0.0130531 -0.0149451 0.0284334 
91 1 0.00044 0.0165522 0.00131685 3.54547e-05 -5.07412e-05 -1.3448e-05 0 4.28093e-08 1.37086e-08 0 -0.0968899 0.16724 0.118475 
53 1 0.0005 0.0161589 0.000503451 -4.85386e-05 -1.97362e-05 4.18561e-06 0 2.16311e-08 1.37445e-08 0 0.184252 0.030889 -0.0405956 
65 1 0.00048 0.0177978 0.00133129 -3.92382e-05 -5.80299e-05 -3.10726e-06 0 4.20926e-08 8.98706e-09 0 0.0143503 -0.00943732 0.105566 
4 1 0.00058 0.0171618 0.000538807 -3.8784e-05 -1.14235e-05 -8.02095e-06 0 2.76645e-08 1.51994e-08 0 -0.0110139 -0.0166685 0.00274947 
5 1 0.00056 0.0182415 0.000485998 3.096e-05 -6.89741e-06 1.32856e-06 0 1.79565e-08 2.26228e-09 0 -0.00637189 0.0189268 0.0050476 
49 1 0.0005 0.0199998 0.00131784 4.93031e-05 -5.51614e-05 -2.16266e-05 0 4.18795e-08 8.38401e-09 0 0.0134736 -0.0678104 0.157402 
40 1 0.0005 0.0189217 0.00128034 6.72355e-06 -5.95789e-05 -4.7035e-07 0 4.85086e-08 6.30531e-09 0 0.0140453 -0.0167069 0.121957 
42 1 0.0005 0.0192498 0.000430334 -3.72737e-05 -7.95471e-07 7.28995e-06 0 8.85455e-09 -1.26862e-09 0 0.000327855 -0.0242245 0.000998807 
18 1 0.00054 0.000911446 0.00230583 5.14548e-06 -9.42276e-05 1.22809e-05 0 9.50746e-08 -1.0157e-08 0 -0.00277161 0.00287758 0.123697 
50 1 0.0005 0.000388034 0.00315955 -4.9345e-05 -0.000132072 -2.4695e-05 0 9.35973e-08 1.07219e-08 0 0.0040232 -0.00177849 -0.0216961 
182 1 0.00046 0.00207149 0.00294805 -3.17454e-05 -0.000115759 -2.35465e-05 0 5.94671e-08 1.50956e-08 0 0.0308433 0.0940893 0.0409643 
24 1 0.00052 0.00232597 0.0021204 -1.41959e-06 -7.37179e-05 -1.70462e-05 0 5.20229e-08 1.25953e-08 0 -0.0433007 -0.00814419 0.0413802 
189 1 0.00044 0.00292847 0.00285105 3.50109e-05 -0.000104712 -1.1506e-05 0 4.26524e-08 5.8463e-09 0 -0.0292913 -0.0981125 0.0112513 
66 1 0.00048 0.00325854 0.0020192 -3.46654e-05 -6.88018e-05 2.22807e-06 0 3.95031e-08 6.06645e-10 0 0.0529497 0.00872218 0.016292 
22 1 0.00054 0.00386944 0.00297741 -3.02218e-05 -0.000108968 1.52374e-06 0 7.56761e-08 1.58905e-08 0 -0.0420782 0.0694257 0.0679904 
70 1 0.00048 0.00413063 0.00209025 3.70504e-05 -6.42924e-05 5.65966e-06 0 3.6091e-08 9.5678e-09 0 0.026821 0.0014341 0.00257834 
164 1 0.00048 0.00498697 0.00300274 3.07542e-05 -0.000110839 -1.74754e-05 0 5.14301e-08 2.03319e-08 0 0.0323084 0.008953 0.106745 
69 1 0.00048 0.00497792 0.00196034 -2.23732e-05 -6.06581e-05 4.98705e-06 0 3.77056e-08 1.78881e-08 0 -0.028153 -0.00574134 0.0243135 
89 1 0.00044 0.00564737 0.00243805 -2.11247e-06 -7.96599e-05 3.13903e-06 0 4.09537e-08 1.62513e-08 0 -0.0184011 -0.0239579 -0.0221061 
44 1 0.0005 0.00623927 0.0030735 -3.67063e-05 -0.000104744 3.5135e-06 0 7.87184e-08 1.89809e-08 0 -0.0288713 -0.0294112 0.0542782 
80 1 0.00046 0.00642597 0.00213317 3.11799e-05 -8.11065e-05 3.55909e-06 0 4.93415e-08 1.39798e-08 0 -0.0813532 0.0573197 0.0318503 
93 1 0.00042 0.00699281 0.0027095 -2.75116e-05 -9.35429e-05 1.46245e-05 0 4.26038e-08 7.4929e-09 0 0.153307 -0.0131704 -0.0120369 
64 1 0.00048 0.00731971 0.00191012 4.80419e-05 -8.05525e-05 2.13117e-05 0 4.97184e-08 4.43826e-09 0 -0.147585 0.0241609 0.0164352 
90 1 0.00044 0.00772959 0.00291279 1.77683e-05 -9.98603e-05 7.0563e-06 0 4.8077e-08 1.36497e-08 0 0.0424532 0.0678321 0.0269271 
1 1 0.00058 0.00828889 0.00219846 -3.97226e-05 -8.97252e-05 9.87278e-06 0 9.69586e-08 2.23397e-08 0 -0.0129894 -0.0775664 -0.000138646 
31 1 0.00052 0.00876739 0.00311859 4.55657e-05 -9.93099e-05 1.22026e-05 0 8.35094e-08 1.9449e-08 0 -0.0184943 0.0525627 0.00434717 
82 1 0.00046 0.00925 0.00230713 1.80717e-05 -9.43176e-05 -3.18953e-06 0 4.91424e-08 1.80171e-08 0 -0.077993 0.100087 -0.0199814 
14 1 0.00054 0.00980726 0.00312824 -3.93388e-05 -0.000108315 1.50978e-06 0 8.68611e-08 1.91729e-08 0 0.0889534 -0.0455908 0.0109954 
39 1 0.0005 0.0101383 0.00222401 2.40231e-05 -8.91476e-05 -1.0065e-05 0 5.5888e-08 1.6539e-08 0 -0.0322449 -0.0920433 0.0148478 
162 1 0.00048 0.0107412 0.00309845 2.716e-05 -0.000106885 -6.90185e-06 0 5.9681e-08 -4.45682e-10 0 -0.00310065 0.0451474 -0.00418576 
55 1 0.0005 0.0110987 0.00228219 -4.78087e-05 -8.9012e-05 -9.65552e-06 0 5.53325e-08 1.87804e-09 0 -0.0453713 0.0964026 0.0319184 
27 1 0.00052 0.0116624 0.00309678 -4.25165e-05 -0.000113132 -6.34358e-06 0 8.9436e-08 -4.13589e-09 0 0.0747216 -0.0385392 0.00605711 
45 1 0.0005 0.0120613 0.0022262 -4.01526e-05 -8.1077e-05 3.69679e-06 0 3.29653e-08 -3.76545e-08 0 0.00423003 -0.109974 0.0397897 
26 1 0.00052 0.01263 0.00312664 2.94528e-05 -0.000121426 -1.72856e-05 0 9.97924e-08 2.02908e-08 0 -0.0354843 0.0300812 -0.00105689 
10 1 0.00056 0.0131094 0.00223019 4.21294e-05 -8.21967e-05 -4.89761e-06 0 5.40249e-08 2.90475e-08 0 0.0141276 -0.00864572 0.0714349 
36 1 0.00052 0.0136579 0.00314461 2.4953e-06 -0.000126459 -6.90353e-06 0 8.92479e-08 1.54652e-08 0 0.00601354 0.0121101 0.0118723 
87 1 0.00044 0.0141703 0.00242039 2.35941e-05 -0.000102887 -2.54942e-08 0 3.74333e-08 3.37913e-09 0 0.0293564 -0.0623881 0.0523585 
41 1 0.0005 0.0146348 0.00314147 -2.89305e-05 -0.000128203 6.87085e-06 0 7.51948e-08 -1.31894e-08 0 -0.0768418 -0.0265922 0.0180134 
57 1 0.0005 0.0150839 0.00224284 3.21045e-05 -8.89993e-05 1.99224e-05 0 5.94558e-08 -2.23972e-08 0 0.0309829 0.0429309 -0.00591078 
21 1 0.00054 0.0156193 0.00308655 2.08022e-05 -0.000117365 3.50476e-05 0 9.45537e-08 -3.57573e-08 0 0.0238968 0.0360043 0.0508453 
76 1 0.00046 0.016008 0.00209047 1.69816e-05 -9.29647e-05 3.20005e-05 0 5.72151e-08 -5.93044e-09 0 0.0679456 -0.066875 0.0730115 
71 1 0.00048 0.0165066 0.00284249 -1.31875e-05 -0.000111349 3.11728e-05 0 6.6047e-08 -1.25899e-09 0 -0.147937 -0.0130936 -0.0474706 
81 1 0.00046 0.0169312 0.00207797 -2.13541e-05 -0.000118275 1.13967e-05 0 6.65896e-08 1.10045e-08 0 0.16657 0.0198177 0.0074822 
63 1 0.00048 0.0173609 0.0030225 -2.48084e-05 -0.000114161 -5.93822e-07 0 6.81672e-08 1.05579e-08 0 0.069162 -0.015546 -0.0178892 
16 1 0.00054 0.0178673 0.00224467 7.17441e-06 -0.000118318 -1.20449e-07 0 1.06213e-07 1.89622e-08 0 -0.0281582 -0.00579839 0.00521347 
51 1 0.0005 0.0184469 0.00302951 -3.11061e-05 -0.000124326 -1.96541e-06 0 8.9626e-08 1.57175e-08 0 0.0227587 -0.00234847 -0.00114614 
37 1 0.00052 0.0188651 0.00220965 -6.697e-06 -0.000121381 -7.23041e-06 0 9.59106e-08 1.71994e-08 0 -0.0141223 0.000891179 -0.0059727 
6 1 0.00056 0.019437 0.00303983 1.88296e-05 -0.000124319 -1.43683e-05 0 1.29859e-07 1.7438e-08 0 0.00859004 0.000376993 0.00589961 
13 1 0.00054 0.0198555 0.00217921 2.40593e-05 -0.000119221 -2.67125e-05 0 1.00733e-07 1.60781e-08 0 -0.00478672 0.00023296 -0.019643 
11 1 0.00056 0.00132285 0.00346721 4.11056e-07 -0.000131436 -2.81141e-05 0 1.23564e-07 2.96139e-08 0 -0.100254 -0.0265897 0.00235431 
179 1 0.00046 0.00154798 0.00438101 -3.43082e-05 -0.000161243 -2.21208e-05 0 7.55993e-08 1.83374e-08 0 0.104944 -0.0451609 0.0572386 
160 1 0.00048 0.000524357 0.00405633 4.11872e-05 -0.000149621 -3.69592e-05 0 8.29836e-08 1.42492e-08 0 0.0139815 0.10674 0.0665237 
62 1 0.00048 0.00225855 0.00383381 4.14547e-05 -0.000138767 -1.7112e-05 0 7.73629e-08 1.79523e-08 0 -0.0243122 -0.0262241 0.00303112 
171 1 0.00048 0.00263386 0.00468329 2.79416e-05 -0.000177631 -1.57586e-06 0 7.88244e-08 1.71921e-08 0 -0.0642284 -0.20971 0.0865637 
178 1 0.00046 0.00314214 0.00368844 -1.57031e-06 -0.000137428 -8.00629e-06 0 5.73814e-08 4.85963e-09 0 0.0134702 0.0411497 0.0347125 
163 1 0.00048 0.00360622 0.0047008 5.32063e-06 -0.000184065 -1.25086e-05 0 7.61222e-08 2.86426e-08 0 0.0161661 -0.0884969 0.0560817 
155 1 0.0005 0.00402494 0.00391632 -2.6529e-06 -0.000153167 2.38221e-06 0 6.80907e-08 1.91162e-08 0 0.0490782 -0.0316177 0.00620643 
103 1 0.00056 0.00459241 0.00494709 -3.58607e-05 -0.000189077 -4.03812e-06 0 1.34671e-07 2.82503e-08 0 -0.021881 0.0709299 0.0152161 
108 1 0.00054 0.00500187 0.00397243 -2.13321e-05 -0.000164227 -6.50621e-06 0 9.6487e-08 3.05593e-08 0 -0.0265292 0.0343449 0.000871077 
106 1 0.00056 0.00566819 0.00479156 -4.97251e-05 -0.000180406 -8.23334e-07 0 1.37004e-07 2.65106e-08 0 0.000958302 -0.0663261 0.0198601 
187 1 0.00046 0.00597713 0.00390422 -2.41619e-05 -0.000153924 -5.59563e-07 0 6.89157e-08 1.38131e-08 0 0.0467302 -0.0388911 0.035968 
116 1 0.00054 0.00668142 0.00459878 -2.57589e-05 -0.000167359 5.66732e-07 0 1.19843e-07 1.96304e-08 0 -0.00423706 0.064129 0.002764 
138 1 0.0005 0.00702511 0.00365598 -4.22335e-05 -0.000136608 7.68057e-06 0 9.45421e-08 2.01068e-08 0 -0.0147504 -0.00709319 0.0139527 
95 1 0.00058 0.0077506 0.00462581 4.30556e-05 -0.000163708 7.42117e-06 0 1.60234e-07 3.52969e-08 0 0.0216671 -0.0532503 0.0334495 
61 1 0.00048 0.00796218 0.00368233 4.42331e-05 -0.000124143 9.95956e-06 0 8.0297e-08 1.5584e-08 0 -0.0114036 0.0113818 0.0156612 
153 1 0.0005 0.00877884 0.00405931 -4.39636e-05 -0.000126839 2.40312e-05 0 9.53441e-08 1.40357e-08 0 0.0382157 0.00811994 0.0411015 
38 1 0.0005 0.00980281 0.00486914 4.93343e-05 -0.000145129 4.78577e-05 0 1.10734e-07 1.18426e-08 0 0.0870588 -0.0769367 0.111636 
75 1 0.00046 0.00961013 0.00400029 4.05756e-05 -0.000111623 2.1553e-05 0 7.5841e-08 1.68878e-08 0 -0.106986 -0.00526948 -0.0425255 
169 1 0.00048 0.00871316 0.00490639 -1.72291e-05 -0.000172702 2.69883e-05 0 8.89241e-08 1.07349e-08 0 -0.0575626 0.0591782 0.0364111 
191 1 0.00044 0.0104251 0.00387986 -3.72271e-05 -0.00011587 -8.41248e-06 0 5.96274e-08 3.26588e-09 0 -0.0458788 0.0360542 0.0109565 
166 1 0.00048 0.0107767 0.00466958 4.50596e-05 -0.000213064 7.44478e-06 0 7.16919e-08 6.65577e-09 0 0.0706585 0.00916945 0.216939 
88 1 0.00044 0.0112846 0.00394184 1.35023e-05 -0.000121805 1.65048e-05 0 5.71327e-08 9.76026e-09 0 -0.0642959 -0.0317658 -0.0204649 
152 1 0.0005 0.0119406 0.00475838 3.81834e-05 -0.000169859 -4.34805e-05 0 9.74161e-08 1.75082e-09 0 0.0411011 -0.0740444 0.0710518 
85 1 0.00044 0.0121445 0.00389527 3.14585e-06 -0.000126511 -2.1403e-05 0 5.29119e-08 -3.80685e-09 0 -0.0507127 0.10913 0.0108693 
151 1 0.0005 0.0129106 0.00493026 -2.4127e-05 -0.000181536 -2.09705e-05 0 9.4042e-08 6.8504e-10 0 -0.0267098 0.0707866 0.0334737 
99 1 0.00056 0.0131349 0.00399617 1.0814e-05 -0.00014395 -1.58888e-05 0 1.16696e-07 1.97344e-08 0 0.0215035 -0.0673935 0.029342 
174 1 0.00046 0.0137707 0.00483824 -4.51984e-05 -0.000178729 -7.67748e-06 0 6.82655e-08 4.43939e-09 0 -0.0686945 -0.0608307 0.0180178 
110 1 0.00054 0.0141915 0.00402784 1.00341e-06 -0.000153356 -3.08889e-07 0 1.26611e-07 3.38776e-09 0 0.0464496 0.0755933 0.0244693 
126 1 0.00052 0.0147152 0.00489068 6.87793e-06 -0.000181419 3.91972e-06 0 1.01401e-07 -1.22088e-08 0 0.0232139 0.0399507 0.0212477 
25 1 0.00052 0.0151603 0.00395753 1.87838e-05 -0.000155782 1.68951e-05 0 1.0879e-07 -3.18757e-08 0 -0.000164438 -0.0832788 0.0238435 
47 1 0.0005 0.0160865 0.0041547 4.33922e-05 -0.000169638 1.38339e-05 0 9.8852e-08 -2.44516e-08 0 -0.0403326 0.073051 -0.0183815 
79 1 0.00046 0.0167841 0.00468953 2.18197e-05 -0.000172852 1.78682e-06 0 7.07029e-08 2.62938e-09 0 0.0797223 -0.0461083 0.0140387 
56 1 0.0005 0.0170358 0.00386917 -2.12721e-05 -0.000174934 -1.47133e-05 0 9.6562e-08 1.44068e-08 0 -0.0402587 -0.0392661 -0.040723 
77 1 0.00046 0.017668 0.00460918 6.56493e-06 -0.000182521 -6.64815e-06 0 7.1235e-08 1.0364e-08 0 0.039454 0.0230783 -0.0114383 
130 1 0.00052 0.0179674 0.00377811 9.36883e-06 -0.000157537 -7.45745e-06 0 9.89383e-08 1.41183e-08 0 -0.0532134 0.0452965 0.0595792 
2 1 0.00058 0.018703 0.00453954 3.03201e-05 -0.000183553 -1.53954e-05 0 1.44208e-07 6.20955e-09 0 0.090239 -0.00306747 -0.0215491 
73 1 0.00046 0.019414 0.00392626 1.43967e-05 -0.000163831 -1.58459e-05 0 7.32208e-08 5.0371e-09 0 -0.00964205 -0.0944882 0.0669551 
23 1 0.00054 0.0197585 0.00479052 -2.66714e-05 -0.000185376 -2.55184e-05 0 1.20821e-07 -2.74804e-09 0 -0.00753346 0.0308317 -0.0101711 
3 1 0.00058 0.000800037 0.00500068 1.15215e-05 -0.000186781 -2.9862e-05 0 1.52169e-07 2.74135e-08 0 0.00539174 -0.0284097 0.000581801 
135 1 0.0005 0.00120618 0.00595153 1.46596e-05 -0.000231981 -2.74257e-05 0 1.05961e-07 2.25304e-08 0 0.0186328 0.111916 0.0790817 
197 1 0.00042 0.000335173 0.00650317 -3.99128e-05 -0.000270943 -5.90791e-06 0 5.89369e-08 -1.37612e-09 0 -0.0102723 0.0274913 0.0788787 
58 1 0.0005 9.39476e-05 0.00571748 -3.26099e-05 -0.000208473 -3.01766e-05 0 8.08344e-08 1.02778e-09 0 0.0211007 0.00660805 0.0570207 
139 1 0.0005 0.00182115 0.00521828 -7.07934e-06 -0.000198748 -1.26323e-05 0 9.96225e-08 3.59131e-08 0 -0.110915 -0.00524414 0.0223065 
109 1 0.00054 0.00214273 0.00645959 -2.06108e-05 -0.000255883 -1.2745e-05 0 1.66271e-07 4.32753e-08 0 -0.0144585 -0.00589668 0.0417691 
156 1 0.0005 0.00263929 0.00563281 3.54227e-05 -0.000221395 -4.47215e-06 0 1.11589e-07 2.67888e-08 0 0.0440669 -0.0198512 0.00991369 
175 1 0.00046 0.00313785 0.00641153 -2.96496e-05 -0.000244339 -7.33895e-06 0 8.81097e-08 1.68278e-08 0 -0.0165225 0.0550503 0.0331143 
114 1 0.00054 0.00359247 0.00562885 1.90715e-05 -0.00021903 -3.58705e-06 0 1.47423e-07 3.36604e-08 0 -0.0156633 0.0111007 0.00713442 
185 1 0.00046 0.00445189 0.00591249 1.72497e-05 -0.000216788 -2.38236e-06 0 8.6407e-08 2.05987e-08 0 0.017368 -0.00691729 0.00435498 
102 1 0.00056 0.00536542 0.00576121 2.50127e-05 -0.000212778 -1.30787e-06 0 1.54032e-07 3.34565e-08 0 0.0193546 -0.00641624 0.027343 
192 1 0.00044 0.00596068 0.00650202 -4.27825e-05 -0.000239737 2.57741e-06 0 7.63363e-08 1.50018e-08 0 -0.0419652 -0.00439134 -0.00267196 
188 1 0.00044 0.00630038 0.00553448 2.43943e-05 -0.000199533 -2.81893e-06 0 6.90374e-08 1.6069e-08 0 -0.0599301 0.0236652 -0.0264855 
149 1 0.0005 0.00680401 0.00637471 -3.07296e-05 -0.000235535 -1.26111e-06 0 1.10447e-07 2.06499e-08 0 -0.00595597 0.00271757 0.0133129 
131 1 0.00052 0.00721106 0.00549558 -2.4969e-05 -0.000200088 -2.33122e-06 0 1.12608e-07 1.68387e-08 0 0.0210607 -0.0275409 0.0390932 
237 1 0.00052 0.00771145 0.00633509 1.47771e-05 -0.000230969 1.12357e-05 0 1.23986e-07 1.39189e-08 0 -0.0242051 0.0060975 0.0238706 
159 1 0.00048 0.00818438 0.00555908 -2.62417e-05 -0.000206347 1.71393e-05 0 9.90776e-08 1.17465e-08 0 -0.0238236 0.0480595 0.0367631 
125 1 0.00052 0.00864634 0.00633092 -3.20614e-05 -0.000225147 1.61897e-05 0 1.22213e-07 6.16817e-09 0 0.0461107 -0.00866999 -0.0146162 
136 1 0.0005 0.00926418 0.00565872 -4.70071e-05 -0.000210306 2.79329e-05 0 1.07789e-07 3.06391e-09 0 0.0372878 -0.0965495 0.0467063 
170 1 0.00048 0.0101234 0.00574468 4.476e-05 -0.000221088 8.32083e-05 0 9.18999e-08 1.39488e-08 0 -0.0901413 0.102269 0.0730377 
167 1 0.00048 0.0109381 0.00555154 -5.06646e-06 -0.000231188 1.70723e-05 0 9.27912e-08 4.69054e-09 0 -0.0825148 -0.0664035 -0.202362 
123 1 0.00052 0.0113936 0.00651263 -4.22073e-05 -0.000232056 -2.64299e-05 0 1.14048e-07 -4.29456e-09 0 -0.0226649 0.0958349 -0.0778855 
168 1 0.00048 0.0117655 0.00566926 2.60985e-05 -0.000223927 -5.2866e-05 0 9.60475e-08 -2.18662e-09 0 -0.0413255 0.0514806 0.0364323 
150 1 0.0005 0.0123443 0.00640694 1.83575e-05 -0.000234951 -4.23375e-05 0 1.02281e-07 6.93431e-09 0 0.012247 -0.0885848 0.0166983 
196 1 0.00042 0.0125281 0.00559992 -2.28987e-05 -0.000212857 -3.46964e-05 0 6.55507e-08 6.33343e-09 0 0.0167683 -0.055813 0.030439 
157 1 0.0005 0.0132247 0.00609456 2.90979e-05 -0.000224743 -2.25291e-05 0 1.09509e-07 2.31469e-08 0 0.0314986 0.0717705 0.0269912 
96 1 0.00058 0.014164 0.00577214 4.28851e-05 -0.000208411 -7.55124e-06 0 1.55676e-07 -4.21718e-10 0 0.00110609 -0.0670725 0.0155654 
115 1 0.00054 0.015187 0.00589405 -1.46308e-05 -0.000212219 -2.4257e-06 0 1.2591e-07 -1.758e-08 0 -0.0412009 0.0613505 0.0150496 
143 1 0.0005 0.0156857 0.0050214 -7.56683e-06 -0.000183566 1.18147e-05 0 8.71349e-08 -2.44496e-08 0 0.0173721 -0.0244587 0.0225391 
141 1 0.0005 0.0160648 0.00623886 -4.83823e-05 -0.000218706 1.13616e-05 0 9.67984e-08 -1.50362e-08 0 0.0865423 -0.0406715 0.0457825 
146 1 0.0005 0.0165235 0.0055191 2.89194e-05 -0.000190411 1.14948e-05 0 7.0838e-08 -2.38976e-08 0 -0.0580613 -0.0155287 0.00846959 
195 1 0.00044 0.0169974 0.0063227 3.21564e-05 -0.000245274 1.12618e-05 0 5.32322e-08 -2.27497e-08 0 0.0509135 -0.0330054 0.0833862 
190 1 0.00044 0.0173254 0.00537659 -4.85919e-05 -0.000181852 -1.67637e-06 0 5.98148e-08 1.61349e-08 0 -0.0813497 0.0586638 -0.0189052 
101 1 0.00056 0.0180858 0.00628283 -1.12464e-05 -0.000241045 -5.46954e-06 0 1.78118e-07 -7.76073e-09 0 0.0472553 0.207414 0.0931534 
147 1 0.0005 0.0181496 0.00535633 3.12852e-05 -0.000180079 -6.86355e-06 0 1.00933e-07 4.32046e-09 0 -0.064027 -0.0590997 0.00365792 
172 1 0.00048 0.0193013 0.00636132 2.46256e-05 -0.000233223 -2.5919e-05 0 1.12046e-07 1.29053e-09 0 0.163206 0.212734 0.149686 
144 1 0.0005 0.0190648 0.00549221 -4.44854e-05 -0.000177638 -2.46066e-05 0 1.00542e-07 3.76267e-09 0 -0.0840771 0.0479562 -0.0101711 
194 1 0.00044 0.00128089 0.00681513 -2.73404e-05 -0.000280624 -2.19836e-05 0 8.76492e-08 1.20302e-08 0 -1.50795e-05 0.017973 0.00502746 
107 1 0.00054 0.00115853 0.00795954 -3.38667e-05 -0.000298977 -1.01642e-05 0 1.551e-07 1.36965e-08 0 -0.0147984 0.00093475 -0.00228171 
193 1 0.00044 0.000617234 0.00726029 -4.2113e-05 -0.000295307 -9.23762e-06 0 8.64765e-08 3.3555e-09 0 0.000234703 -0.0258615 -0.00482751 
211 1 0.00056 0.000126995 0.00807638 1.49646e-05 -0.000302888 -5.53515e-06 0 1.74918e-07 9.65375e-09 0 0.0242664 -0.00243823 0.00872705 
137 1 0.0005 0.0019199 0.00742608 7.74856e-06 -0.000288547 -1.5596e-05 0 1.26509e-07 2.55049e-08 0 0.010048 0.00282668 0.0136986 
177 1 0.00046 0.00207286 0.00829915 5.5329e-07 -0.000304878 -1.16485e-05 0 9.74114e-08 1.60353e-08 0 0.000701514 -0.00334898 0.0139983 
118 1 0.00054 0.00285049 0.0072565 3.67542e-05 -0.000278252 -6.37278e-06 0 1.60306e-07 3.76025e-08 0 -0.00452857 -0.00261028 0.0205023 
273 1 0.00048 0.00294551 0.00820014 1.2865e-05 -0.000300332 -4.06415e-06 0 1.14677e-07 2.27865e-08 0 0.00725925 -0.00140557 0.0192341 
132 1 0.00052 0.00376328 0.00772316 -4.70278e-05 -0.000286698 -2.95664e-06 0 1.51818e-07 2.13476e-08 0 0.00466999 -0.00585758 0.00322961 
127 1 0.00052 0.00401308 0.00673757 -1.13161e-05 -0.00025137 4.37599e-06 0 1.35578e-07 2.68422e-08 0 0.0101278 -0.0391587 0.0369654 
142 1 0.0005 0.00473779 0.00768273 1.72877e-05 -0.000282431 -6.15017e-06 0 1.3854e-07 3.65551e-08 0 0.00553652 0.00478477 0.0108586 
97 1 0.00058 0.00506875 0.0067743 -4.33679e-05 -0.000251534 -8.71457e-06 0 1.82733e-07 4.75927e-08 0 -0.0207963 0.026047 0.0404092 
129 1 0.00052 0.00570379 0.00765943 7.98975e-06 -0.000276782 1.08035e-06 0 1.4969e-07 3.97627e-08 0 0.0391585 -0.00510882 0.00773594 
145 1 0.0005 0.00647939 0.00722425 -4.89198e-05 -0.000258424 1.5066e-06 0 1.20743e-07 2.04196e-08 0 0.0141035 -0.0306052 0.0178737 
117 1 0.00054 0.00705769 0.00808598 -1.8846e-05 -0.000294689 4.99526e-06 0 1.45744e-07 2.49241e-08 0 -0.0245057 -0.0114353 0.0317576 
158 1 0.00048 0.00737632 0.00719513 -2.80691e-05 -0.000261282 7.07498e-06 0 1.07432e-07 1.62752e-08 0 0.0175778 0.0364546 0.0185894 
303 1 0.00042 0.00793948 0.00787496 -4.34141e-05 -0.00028904 1.70822e-05 0 6.73154e-08 1.27943e-08 0 0.0225067 0.0195464 0.0169296 
184 1 0.00046 0.00825631 0.00712203 2.59556e-05 -0.000256706 2.13146e-05 0 9.38184e-08 1.40725e-08 0 -0.0135963 -0.0470828 0.0496253 
111 1 0.00054 0.00886049 0.00784532 -3.81694e-05 -0.000299054 3.72311e-05 0 1.38911e-07 3.47581e-08 0 -0.0337214 -0.0140732 0.0399373 
210 1 0.00056 0.0094295 0.00692111 -2.37608e-06 -0.000252933 4.48571e-05 0 1.45894e-07 1.96722e-08 0 0.0235999 0.0649106 0.133517 
233 1 0.00052 0.00985136 0.00782602 -1.57412e-05 -0.000323303 3.75945e-05 0 1.14576e-07 1.90581e-08 0 0.0193776 0.0115069 -0.0287021 
100 1 0.00056 0.0104182 0.00667402 -1.47472e-05 -0.000221292 8.38685e-05 0 1.46137e-07 1.455e-08 0 0.0801673 -0.0952158 -0.0788896 
213 1 0.00056 0.0107602 0.00823608 4.979e-05 -0.000322299 -3.0317e-05 0 1.42205e-07 1.46348e-08 0 0.00123397 0.00311047 -0.0641622 
199 1 0.00042 0.0110347 0.00735926 2.22644e-05 -7.29054e-05 1.61824e-05 0 5.19456e-08 2.60879e-09 0 -0.113612 0.140719 -0.302218 
120 1 0.00052 0.0117387 0.00821226 -4.55597e-05 -0.0003085 -5.04354e-05 0 1.181e-07 -9.18987e-11 0 -0.00595883 -0.0132028 0.0287225 
112 1 0.00054 0.0120522 0.0073026 -4.5975e-05 -0.000258085 -4.36628e-05 0 1.28317e-07 1.36096e-09 0 0.0411094 -0.0869295 0.0609604 
161 1 0.00048 0.0128716 0.00785358 4.23607e-05 -0.000286333 -2.76253e-05 0 9.71472e-08 8.00454e-09 0 0.013312 0.144143 0.0174381 
186 1 0.00046 0.0130343 0.00699414 4.20701e-05 -0.000257685 -2.71356e-05 0 8.32714e-08 1.09067e-08 0 -0.0588217 0.0431609 0.0357298 
104 1 0.00056 0.0138649 0.00781706 -5.04024e-06 -0.00028302 -1.63007e-05 0 1.5957e-07 1.48729e-08 0 0.00362357 -0.128138 0.0272361 
148 1 0.0005 0.0139179 0.00680024 1.64328e-05 -0.000254921 -1.83295e-05 0 1.02673e-07 1.37685e-08 0 0.00866326 -0.0192516 0.00210093 
154 1 0.0005 0.0148684 0.00792273 -1.6913e-05 -0.000286694 -4.93185e-06 0 1.19967e-07 -3.25285e-10 0 -0.0347448 0.146873 0.0174369 
98 1 0.00058 0.0149213 0.00691252 -4.21217e-05 -0.000254437 -8.75632e-06 0 1.64544e-07 -9.78536e-09 0 0.0219705 0.010703 0.0330179 
128 1 0.00052 0.0158371 0.00811085 -3.94419e-05 -0.000293698 6.06066e-06 0 1.43841e-07 -4.65346e-09 0 0.0578274 -0.140742 0.0250539 
121 1 0.00052 0.0159296 0.00713262 -1.21974e-05 -0.000265676 8.62049e-06 0 1.32167e-07 -1.31184e-08 0 -0.0644562 -0.0103011 0.0326885 
124 1 0.00052 0.0166985 0.0077011 -3.70828e-05 -0.000284982 9.2859e-06 0 1.41872e-07 -1.34558e-08 0 0.151369 0.0589917 -0.0125386 
119 1 0.00054 0.0175035 0.00715114 -3.33274e-05 -0.000287104 -5.80795e-06 0 1.63335e-07 -2.02304e-08 0 -0.129417 -0.0784016 -0.0103577 
165 1 0.00048 0.0181715 0.00805574 -3.83096e-05 -0.000304045 5.43258e-06 0 1.11677e-07 -8.91811e-09 0 -0.102111 -0.0505873 0.00426334 
113 1 0.00054 0.0185202 0.00717456 -2.02095e-05 -0.000293685 6.23855e-06 0 1.66545e-07 -1.32469e-08 0 0.0865663 0.0741985 0.0135875 
173 1 0.00048 0.0191925 0.00778168 -4.84051e-05 -0.000300458 1.6983e-06 0 1.11849e-07 -3.1278e-09 0 0.00315181 0.00961771 -0.00259402 
140 1 0.0005 0.0197722 0.00712998 -3.46879e-05 -0.000298717 -4.2466e-06 0 1.26001e-07 5.40281e-09 0 -0.024993 0.0160225 -0.0113529 
215 1 0.00054 0.00161683 0.00915043 2.66777e-05 -0.000320285 -7.21483e-06 0 1.47741e-07 1.80972e-08 0 0.00493127 -0.0100648 1.19679e-05 
301 1 0.00042 0.000819933 0.00875854 -3.96098e-06 -0.000314245 -5.30289e-06 0 6.93897e-08 5.70724e-09 0 0.00615721 0.0295246 0.0140898 
248 1 0.0005 0.000750593 0.00962911 -1.72888e-05 -0.000326097 -3.34567e-06 0 1.08979e-07 1.00188e-08 0 -0.000621514 0.00517832 -0.00180204 
229 1 0.00052 0.00233751 0.00997653 2.41907e-05 -0.000336234 -5.58872e-06 0 1.2275e-07 1.63369e-08 0 0.011089 -0.00205557 0.0055951 
236 1 0.00052 0.00259935 0.00906517 4.87165e-05 -0.000318466 -6.21424e-06 0 1.33035e-07 2.37938e-08 0 -0.00849917 0.00710776 0.0141138 
291 1 0.00046 0.00324827 0.00972712 7.50784e-06 -0.00033053 -1.1595e-07 0 8.91902e-08 1.80983e-08 0 0.0186111 -0.00227182 0.0226906 
286 1 0.00046 0.00349554 0.0088913 -7.08428e-06 -0.000311474 -3.10083e-06 0 9.63577e-08 2.22277e-08 0 -0.0172423 -0.00465141 0.000436498 
234 1 0.00052 0.00420994 0.00954444 6.12283e-06 -0.000325832 -1.19462e-06 0 1.31338e-07 3.18733e-08 0 0.00481349 -0.00918993 0.0283128 
201 1 0.00058 0.00437481 0.0085804 1.74262e-06 -0.000300892 -3.2719e-06 0 2.01246e-07 4.63768e-08 0 -0.00616573 0.0110158 0.0129269 
265 1 0.00048 0.00518555 0.00943748 -2.81666e-05 -0.000323655 7.16698e-06 0 1.02793e-07 3.13086e-08 0 0.0302109 0.0094461 0.0130873 
134 1 0.00052 0.00537056 0.0085308 -1.04316e-05 -0.000299335 5.51302e-06 0 1.47082e-07 4.24508e-08 0 -0.0292116 -0.0133866 0.0228086 
247 1 0.0005 0.0061325 0.00937666 9.49774e-06 -0.0003215 1.17879e-05 0 1.16637e-07 3.86852e-08 0 -0.00413764 -0.0144172 0.0187553 
198 1 0.00042 0.00625095 0.00848865 -4.45245e-05 -0.000304157 4.99222e-06 0 7.40704e-08 2.05986e-08 0 0.00879538 0.0212432 -0.0172505 
264 1 0.00048 0.00696326 0.00902649 3.54547e-06 -0.000316635 1.24439e-05 0 1.0199e-07 2.66468e-08 0 0.0276407 0.00820675 0.00181064 
232 1 0.00052 0.00742573 0.00986947 -2.7703e-05 -0.000333916 2.49193e-05 0 1.20374e-07 4.24594e-08 0 0.00219209 0.0383622 0.0240778 
176 1 0.00046 0.00780752 0.00871384 -4.92713e-05 -0.000315112 1.96214e-05 0 8.22751e-08 1.76809e-08 0 -0.0123831 -0.0192083 0.0253538 
274 1 0.00048 0.00822217 0.00951135 1.26179e-05 -0.000327318 2.46966e-05 0 9.31883e-08 2.28578e-08 0 -0.0227377 -0.0372927 -0.0130731 
244 1 0.0005 0.00872719 0.00878884 4.93873e-05 -0.000322982 2.5568e-05 0 9.65211e-08 2.57213e-08 0 0.0336779 0.0167631 0.00613427 
228 1 0.00052 0.0091218 0.00970285 -4.18982e-05 -0.000332925 1.62586e-05 0 1.13048e-07 1.82023e-08 0 -0.000639209 0.032904 0.01513 
203 1 0.00058 0.00973783 0.0088597 -9.33208e-06 -0.000319451 1.87238e-05 0 1.62342e-07 3.06461e-08 0 -0.0175921 -0.0105968 -0.0124765 
225 1 0.00054 0.01069 0.00928998 -3.72943e-05 -0.000310488 -1.90938e-05 0 1.36738e-07 1.21119e-08 0 -0.0085702 -0.00245276 -0.0163878 
284 1 0.00046 0.0113961 0.00989448 1.32074e-05 -0.000328021 -2.92383e-05 0 8.13261e-08 -3.29125e-09 0 -0.0184407 -0.0302615 0.0132118 
281 1 0.00046 0.0116337 0.00908135 3.24679e-05 -0.000320856 -3.76978e-05 0 8.75956e-08 -1.97377e-09 0 0.0101489 0.0165818 -0.00505489 
209 1 0.00056 0.0123201 0.00976165 -1.82378e-05 -0.000329373 -3.04987e-05 0 1.50912e-07 2.33996e-11 0 0.0354034 0.0227746 0.00751052 
105 1 0.00056 0.0125716 0.00876248 4.17083e-05 -0.000314029 -3.12747e-05 0 1.52319e-07 2.02601e-11 0 -0.0407425 -0.00670864 0.0181734 
302 1 0.00042 0.013237 0.00962615 2.0062e-05 -0.000329987 -2.35391e-05 0 6.58126e-08 3.80089e-09 0 -0.0269586 -0.0303884 0.0189378 
133 1 0.00052 0.0135728 0.00880558 -3.30909e-05 -0.000311802 -2.01256e-05 0 1.31802e-07 8.86828e-09 0 0.0310844 0.000447239 0.0158725 