ITEM: TIMESTEP
400870000
ITEM: NUMBER OF ATOMS
400
ITEM: BOX BOUNDS pp ff ff
0 0.02
0 0.04
-0.00065 0.00065
ITEM: ATOMS id type radius x y z vx vy vz fx fy fz omegax omegay omegaz 
74 1 0.00046 0.00132458 0.000443562 3.36586e-05 -3.03472e-05 -8.63119e-06 0 -1.2706e-08 -1.5342e-08 0 -0.0357552 -0.194065 0.0424748 
35 1 0.00052 0.000909057 0.00128622 -1.66342e-05 -3.78529e-05 1.24654e-05 0 7.41428e-09 -1.04824e-08 0 0.113799 0.0665378 -0.0547309 
7 1 0.00056 0.000242991 0.000443143 -3.64628e-05 2.95892e-06 2.28529e-06 0 6.44813e-08 -4.02652e-08 0 -0.00970623 -0.0510646 -0.00735928 
43 1 0.0005 0.001832 0.00127767 5.09221e-06 -3.81203e-05 -1.82717e-05 0 -8.01591e-09 -3.06973e-08 0 -0.048913 -0.0737778 0.00886922 
30 1 0.00052 0.00226689 0.000435624 -1.24497e-05 -1.89608e-05 -3.81463e-06 0 -4.67636e-10 -9.01452e-09 0 0.00266102 0.160702 0.0193778 
67 1 0.00048 0.00273836 0.00128766 4.63423e-05 -3.76422e-05 -4.99853e-06 0 -1.36018e-08 -8.69171e-09 0 0.0583045 0.0803204 0.0297149 
17 1 0.00054 0.00324596 0.000515957 4.67087e-05 -1.75935e-05 2.41398e-06 0 -2.74713e-10 -6.05951e-09 0 0.00484383 -0.151665 0.0128122 
86 1 0.00044 0.00374256 0.0012919 -1.5404e-05 -3.43584e-05 6.20081e-06 0 2.70714e-09 -1.04737e-08 0 -0.152047 -0.0274502 0.0135201 
84 1 0.00044 0.00460411 0.00119566 -2.0603e-05 -3.44827e-05 2.59737e-06 0 1.16352e-08 5.17429e-09 0 0.105758 0.0368269 0.0299139 
54 1 0.0005 0.0041726 0.000417346 3.04549e-05 -1.15496e-05 2.29913e-07 0 5.18551e-09 4.62039e-09 0 0.00442856 0.160408 0.0020971 
46 1 0.0005 0.00511574 0.000469808 4.04467e-05 -1.63948e-05 7.96384e-07 0 9.27362e-09 1.51128e-08 0 -0.00156542 -0.159607 0.0135386 
15 1 0.00054 0.00566798 0.00130831 -2.65834e-05 -4.03721e-05 -2.5774e-07 0 3.46242e-08 4.56103e-08 0 -0.0719947 0.0427665 0.0160127 
72 1 0.00048 0.00663967 0.00128966 -2.02466e-06 -4.5509e-05 1.33544e-05 0 2.77693e-08 -7.77754e-09 0 0.0792054 -0.044655 0.0505771 
78 1 0.00046 0.00602152 0.000418893 -1.20537e-05 -1.33349e-05 3.92253e-06 0 6.1738e-09 9.01271e-09 0 -0.00179248 0.173614 0.0158751 
52 1 0.0005 0.00693128 0.000445444 3.91278e-05 -9.94022e-06 9.9349e-06 0 8.20873e-09 -3.45328e-09 0 -0.0019259 -0.156482 0.0142987 
8 1 0.00056 0.00824221 0.00117622 -1.82355e-06 -3.59135e-05 4.70988e-06 0 5.05191e-08 -2.60981e-08 0 0.0373254 -0.026401 0.085207 
92 1 0.00042 0.00779486 0.000364348 3.24564e-05 1.64422e-07 -1.78282e-06 0 4.73789e-09 -2.59917e-09 0 0.0104472 0.181186 -0.0247537 
60 1 0.00048 0.0087669 0.000398704 -3.28708e-05 9.10695e-07 1.12206e-05 0 5.84775e-09 -1.19547e-08 0 0.000813454 -0.0400155 -0.0145397 
32 1 0.00052 0.00930043 0.00138477 3.24568e-05 -5.44822e-05 -3.25167e-06 0 7.72052e-08 3.15253e-08 0 0.0448525 -0.0931591 0.0787113 
20 1 0.00054 0.00975719 0.00049092 -2.76781e-05 -1.02882e-05 4.06719e-06 0 1.25805e-08 -5.17375e-09 0 -0.00835965 0.0366967 0.0102985 
28 1 0.00052 0.0103848 0.00131154 -4.92787e-05 -4.59383e-05 4.77512e-07 0 7.88206e-09 3.22904e-09 0 0.0342522 -0.0129061 0.0408697 
34 1 0.00052 0.0113764 0.00139198 -4.32784e-06 -5.09978e-05 7.26433e-06 0 -1.18232e-09 -3.10712e-08 0 -0.00943977 0.0156767 0.0154797 
59 1 0.00048 0.0107648 0.000443771 -3.96086e-06 -1.51265e-05 1.17073e-06 0 4.61403e-09 2.69242e-09 0 -0.00337579 -0.0501765 0.0146524 
9 1 0.00056 0.0117794 0.000485554 -1.32742e-05 -2.28051e-05 4.8221e-06 0 -1.43823e-08 -3.47884e-08 0 -0.00865221 0.0437422 0.0256233 
19 1 0.00054 0.0124047 0.00132982 1.95463e-05 -4.51594e-05 1.31644e-05 0 -2.56895e-08 -5.33981e-08 0 0.0359059 -0.0199972 0.0131418 
68 1 0.00048 0.0127807 0.000442754 1.3181e-05 -2.3208e-05 6.10724e-06 0 -9.03397e-09 -1.58461e-08 0 -0.00678729 -0.0509978 0.0110778 
12 1 0.00056 0.0134327 0.00122615 3.75182e-05 -4.13533e-05 6.05131e-06 0 -4.90497e-08 4.84006e-09 0 0.00226628 0.0233318 -0.000765804 
94 1 0.00042 0.0136133 0.000329986 1.89547e-05 -2.11001e-05 6.10964e-06 0 -6.72317e-09 1.01919e-09 0 -0.0106857 0.0647026 0.032821 
48 1 0.0005 0.0143503 0.00162003 1.99029e-05 -6.12266e-05 1.16509e-05 0 -2.03142e-08 1.86214e-08 0 -0.0162395 -0.029554 0.0627968 
33 1 0.00052 0.014364 0.000727356 -4.71808e-05 -2.89944e-05 6.81388e-06 0 -3.39976e-08 1.5999e-08 0 0.0171261 -0.0507577 -0.00786098 
83 1 0.00046 0.0156453 0.00128564 1.72248e-05 -4.07226e-05 8.73248e-06 0 5.53782e-08 -2.16658e-08 0 -0.0983718 -0.228368 0.0167398 
29 1 0.00052 0.0152271 0.000426894 3.7231e-06 -1.90163e-05 5.66201e-06 0 -1.98652e-08 5.78047e-09 0 0.00192566 0.0523375 0.0274459 
91 1 0.00044 0.0165475 0.00131572 3.54547e-05 -4.80364e-05 -7.07405e-06 0 5.18848e-09 -5.20568e-08 0 -0.206632 0.202805 0.115533 
53 1 0.0005 0.0161573 0.00050363 -4.85386e-05 -1.86983e-05 6.40177e-06 0 -2.68373e-08 -5.51098e-08 0 0.251681 -0.0439607 -0.0405072 
65 1 0.00048 0.0177926 0.00133102 -3.92382e-05 -6.01921e-05 3.6395e-06 0 -1.29222e-08 -3.45331e-08 0 0.0679273 -0.0235341 0.113934 
4 1 0.00058 0.0171608 0.000538062 -3.8784e-05 -1.11767e-05 -5.4971e-06 0 -3.30935e-08 -7.47537e-08 0 -0.00887268 0.0541091 0.00439946 
5 1 0.00056 0.0182409 0.000486084 3.096e-05 -7.18392e-06 4.57003e-06 0 -1.82871e-08 -2.5124e-08 0 -0.00394201 -0.0582845 0.00445083 
49 1 0.0005 0.0199945 0.00131565 4.93031e-05 -4.77226e-05 -9.12555e-06 0 8.32342e-09 -5.97134e-08 0 0.0575802 -0.0763811 0.115595 
40 1 0.0005 0.0189167 0.00128032 6.72355e-06 -5.39452e-05 5.34858e-06 0 -1.63942e-09 -1.81237e-08 0 -0.0408061 0.019827 0.110209 
42 1 0.0005 0.0192496 0.000430881 -3.72737e-05 -2.09053e-06 9.23223e-06 0 5.43909e-09 7.76012e-10 0 0.003 0.0619286 0.00148385 
18 1 0.00054 0.000903831 0.00230729 5.14548e-06 -7.25681e-05 1.19576e-05 0 1.65635e-08 -3.57582e-08 0 -0.151396 1.02016 0.116745 
50 1 0.0005 0.000376808 0.00315737 -4.9345e-05 -0.000123991 -3.0929e-05 0 1.0692e-08 -2.83533e-08 0 -0.3229 -0.237158 -0.0343298 
182 1 0.00046 0.00206119 0.00294636 -3.17454e-05 -0.000112304 -2.19547e-05 0 8.60007e-09 3.94666e-09 0 0.0768922 0.0700875 0.0393325 
24 1 0.00052 0.00231937 0.00211916 -1.41959e-06 -7.07364e-05 -1.65387e-05 0 -1.68998e-08 -8.85565e-09 0 -0.0503577 -0.0900162 0.0437742 
189 1 0.00044 0.00291915 0.00285024 3.50109e-05 -0.000102967 -9.11285e-06 0 1.47857e-09 -1.6368e-09 0 -0.0963078 -0.0828969 0.0153774 
66 1 0.00048 0.00325228 0.0020195 -3.46654e-05 -6.73962e-05 2.17951e-06 0 -1.35102e-08 -2.46579e-08 0 0.0746095 0.0944872 0.0119285 
22 1 0.00054 0.00385969 0.00297752 -3.02218e-05 -0.000109834 1.18323e-06 0 2.45568e-08 -3.78429e-08 0 -0.0955678 0.0515141 0.068568 
70 1 0.00048 0.00412481 0.00209073 3.70504e-05 -6.25263e-05 6.5991e-06 0 -1.57395e-08 -2.91533e-08 0 0.103909 -0.070971 0.0154148 
164 1 0.00048 0.00497689 0.0030011 3.07542e-05 -0.000123233 -2.13889e-05 0 8.99969e-08 5.75351e-08 0 0.00334736 -0.0781329 0.0846791 
69 1 0.00048 0.00497243 0.00196083 -2.23732e-05 -5.93641e-05 3.91032e-06 0 -5.07327e-09 2.88606e-08 0 -0.0425382 0.0601774 0.00372237 
89 1 0.00044 0.00564015 0.00243834 -2.11247e-06 -8.22883e-05 5.95579e-06 0 1.79685e-08 3.21766e-09 0 0.109689 -0.0108418 0.0177713 
44 1 0.0005 0.00622978 0.00307385 -3.67063e-05 -0.000108684 9.79073e-06 0 1.64204e-08 6.60979e-09 0 -0.0463029 0.0542342 0.0273728 
80 1 0.00046 0.00641854 0.00213341 3.11799e-05 -8.1531e-05 1.2045e-05 0 4.99083e-09 -2.4007e-08 0 -0.0775932 -0.00442832 0.0170226 
93 1 0.00042 0.00698432 0.00271054 -2.75116e-05 -9.52643e-05 1.664e-05 0 1.41887e-08 -9.66583e-09 0 0.0467202 -0.0450012 0.00464805 
64 1 0.00048 0.00731251 0.00191182 4.80419e-05 -7.99947e-05 2.22648e-05 0 1.99841e-08 -1.21095e-08 0 -0.0622599 0.0560893 0.00651159 
90 1 0.00044 0.00772037 0.00291345 1.77683e-05 -0.000102191 1.11098e-05 0 2.15907e-09 -3.39128e-08 0 0.0650345 0.0711014 0.0184495 
1 1 0.00058 0.00828075 0.00219946 -3.97226e-05 -8.83189e-05 1.30743e-05 0 7.27024e-08 -3.9257e-08 0 -0.0326908 -0.0725972 0.00825147 
31 1 0.00052 0.00875832 0.00311976 4.55657e-05 -0.000102184 1.68246e-05 0 -3.60006e-08 -3.37159e-08 0 -0.00110694 0.032786 0.00563056 
82 1 0.00046 0.00924147 0.00230683 1.80717e-05 -9.20027e-05 5.67191e-06 0 3.98896e-08 1.05656e-08 0 -0.0570441 0.0771578 -0.014654 
14 1 0.00054 0.00979714 0.00312838 -3.93388e-05 -0.000110331 7.45726e-06 0 4.68038e-08 -2.31264e-08 0 0.0515069 -0.0307108 0.0160491 
39 1 0.0005 0.0101303 0.00222315 2.40231e-05 -8.79009e-05 4.83887e-08 0 4.04958e-08 8.74098e-09 0 -0.0192639 -0.0627607 0.0133691 
162 1 0.00048 0.0107313 0.00309811 2.716e-05 -0.000108927 3.57155e-06 0 3.0663e-08 -2.08877e-08 0 -0.0184419 0.0302012 -0.00122136 
55 1 0.0005 0.0110906 0.00228155 -4.78087e-05 -8.97977e-05 8.8382e-07 0 3.78944e-08 -2.4618e-08 0 -0.0209743 0.0604889 0.0304987 
27 1 0.00052 0.011652 0.00309638 -4.25165e-05 -0.00011542 3.70537e-06 0 6.90805e-08 -3.75027e-08 0 0.0507334 -0.0221353 0.00245285 
45 1 0.0005 0.012054 0.00222703 -4.01526e-05 -8.35677e-05 1.54723e-05 0 2.04268e-08 -5.81735e-08 0 -0.0118907 -0.0572985 0.0472463 
26 1 0.00052 0.0126189 0.00312494 2.94528e-05 -0.000127256 -1.18434e-05 0 1.08593e-07 2.96692e-08 0 0.0222714 0.0238703 -0.0070919 
10 1 0.00056 0.013102 0.00222953 4.21294e-05 -8.9411e-05 -4.12316e-06 0 5.87858e-08 6.35249e-08 0 -0.00366086 -0.0475977 0.0794387 
36 1 0.00052 0.0136464 0.00314416 2.4953e-06 -0.000134465 -3.13003e-06 0 1.01643e-07 6.05582e-08 0 -0.0157331 -0.00944507 0.00813184 
87 1 0.00044 0.014161 0.00242054 2.35941e-05 -0.000111504 1.06157e-06 0 3.3393e-08 2.96578e-08 0 0.0176989 0.0168184 0.0517073 
41 1 0.0005 0.0146232 0.00314231 -2.89305e-05 -0.000136947 7.09082e-06 0 8.33409e-08 2.33596e-08 0 0.00287355 0.00859358 0.0115157 
57 1 0.0005 0.0150758 0.00224476 3.21045e-05 -9.3556e-05 1.75452e-05 0 5.08078e-08 -4.10112e-08 0 -0.0210772 -0.00852892 -0.0149893 
21 1 0.00054 0.0156088 0.00308968 2.08022e-05 -0.000122076 3.44848e-05 0 1.07904e-07 -2.33852e-08 0 0.00482962 -0.0101866 0.0611632 
76 1 0.00046 0.0159997 0.00209326 1.69816e-05 -9.19259e-05 3.44983e-05 0 6.11171e-08 -3.98998e-08 0 0.0128672 0.00950536 0.0937593 
71 1 0.00048 0.0164968 0.00284518 -1.31875e-05 -0.000113629 3.5302e-05 0 5.39393e-08 -5.16549e-08 0 -0.0118573 0.0138752 -0.056961 
81 1 0.00046 0.016921 0.00207886 -2.13541e-05 -0.000114219 1.79334e-05 0 1.93674e-08 -6.21636e-08 0 0.156373 -0.265136 0.0272338 
63 1 0.00048 0.017351 0.00302223 -2.48084e-05 -0.000113685 3.58707e-06 0 3.65587e-08 -5.29987e-08 0 -0.0673898 -0.0384033 -0.00620549 
16 1 0.00054 0.0178572 0.0022446 7.17441e-06 -0.000112369 8.12731e-06 0 2.99745e-08 -6.33959e-08 0 -0.0593521 0.234773 -0.0063964 
51 1 0.0005 0.0184364 0.0030293 -3.11061e-05 -0.000116598 4.93275e-06 0 1.78481e-08 -4.54709e-08 0 0.143484 -0.165663 0.00506283 
37 1 0.00052 0.0188548 0.00220901 -6.697e-06 -0.000111847 -6.81884e-07 0 7.52303e-09 -3.78794e-08 0 0.0578314 -0.246622 0.000668899 
6 1 0.00056 0.0194265 0.00303866 1.88296e-05 -0.000118853 -2.86198e-06 0 2.391e-08 -4.61703e-08 0 -0.0939184 0.15513 0.00920727 
13 1 0.00054 0.0198453 0.00217662 2.40593e-05 -0.000104726 -9.54885e-06 0 -3.84595e-08 -9.15626e-08 0 -0.0930313 0.25164 -0.0031693 
11 1 0.00056 0.00131116 0.00346529 4.11056e-07 -0.00012841 -2.62034e-05 0 2.35371e-08 4.34077e-09 0 -0.1939 0.0383289 0.00587844 
179 1 0.00046 0.00153342 0.00437962 -3.43082e-05 -0.000165031 -1.83266e-05 0 1.25036e-09 5.66481e-09 0 0.261145 0.0848326 0.0639009 
160 1 0.00048 0.000510646 0.00405349 4.11872e-05 -0.000154621 -3.69203e-05 0 1.5517e-10 -7.23406e-09 0 0.253926 -0.058225 0.0716806 
3 1 0.00058 0.000783136 0.00499851 1.15215e-05 -0.000190399 -2.53026e-05 0 5.07494e-09 3.22526e-08 0 -0.211913 -0.0689905 -0.00112013 
62 1 0.00048 0.00224612 0.00383277 4.14547e-05 -0.000140125 -1.25158e-05 0 1.99402e-08 1.58562e-08 0 -0.110296 -0.170832 0.00237263 
171 1 0.00048 0.0026176 0.00468369 2.79416e-05 -0.000184223 4.20407e-06 0 5.48245e-09 1.10054e-08 0 -0.0539837 -0.242448 0.101247 
178 1 0.00046 0.00312987 0.00368793 -1.57031e-06 -0.000138767 -5.25275e-06 0 2.87502e-08 -1.02169e-08 0 0.120849 0.163232 0.0303425 
163 1 0.00048 0.00358952 0.00469938 5.32063e-06 -0.000189488 -1.65608e-05 0 9.16639e-09 -3.21153e-08 0 -0.0292009 -0.0846588 0.070041 
155 1 0.0005 0.00401135 0.00391643 -2.6529e-06 -0.000153958 9.66514e-07 0 5.07218e-08 -2.48725e-08 0 0.107516 -0.0780813 0.00218094 
103 1 0.00056 0.00457526 0.00494667 -3.58607e-05 -0.000193507 -6.51749e-06 0 1.17445e-08 1.38858e-08 0 -0.0453211 0.0573478 0.0141579 
108 1 0.00054 0.0049872 0.00397175 -2.13321e-05 -0.000165091 -9.2631e-06 0 5.28258e-08 5.57704e-08 0 -0.00338971 0.0680059 0.00228865 
106 1 0.00056 0.00565173 0.00479155 -4.97251e-05 -0.000183934 -1.289e-06 0 1.3409e-08 5.09907e-08 0 0.00738187 -0.0574592 0.0249229 
187 1 0.00046 0.00596337 0.00390431 -2.41619e-05 -0.000150973 4.20916e-06 0 -1.54155e-08 1.60928e-08 0 0.0382532 -0.0607895 0.0493162 
116 1 0.00054 0.00666615 0.00459887 -2.57589e-05 -0.000169248 1.6095e-06 0 -4.31554e-08 7.59413e-08 0 0.00320158 0.057925 -0.00167915 
138 1 0.0005 0.00701275 0.00365674 -4.22335e-05 -0.000135713 8.12087e-06 0 -6.51343e-08 5.01641e-08 0 0.00608283 -0.0904133 0.0215754 
95 1 0.00058 0.00773571 0.00462642 4.30556e-05 -0.000165492 5.96859e-06 0 -1.25063e-07 3.63898e-08 0 -0.00017638 -0.0484693 0.0322804 
61 1 0.00048 0.00795088 0.00368317 4.42331e-05 -0.000124767 1.15452e-05 0 -8.26085e-08 -1.20851e-08 0 -0.00776239 0.102251 0.0173919 
153 1 0.0005 0.00876747 0.00406141 -4.39636e-05 -0.000126603 2.40276e-05 0 -6.92602e-08 -4.44816e-08 0 0.00810408 -0.0997998 0.0366152 
38 1 0.0005 0.00978976 0.00487338 4.93343e-05 -0.000158786 3.18845e-05 0 -1.58118e-07 -5.96451e-08 0 0.0721751 -0.123566 0.113765 
75 1 0.00046 0.00960019 0.00400223 4.05756e-05 -0.000114938 1.84261e-05 0 -5.02859e-08 -5.25233e-08 0 -0.0821478 0.118793 -0.0346746 
169 1 0.00048 0.00869732 0.00490867 -1.72291e-05 -0.000177845 2.6812e-05 0 -5.11315e-08 -4.01683e-09 0 -0.0117536 0.0563948 0.048939 
191 1 0.00044 0.0104148 0.0038794 -3.72271e-05 -0.00011553 -1.0027e-06 0 -7.53998e-09 -2.36627e-08 0 0.0556242 -0.123264 0.0153439 
166 1 0.00048 0.0107576 0.00467068 4.50596e-05 -0.000206522 1.10321e-05 0 4.71666e-09 -7.52967e-08 0 -0.0472781 0.121334 0.195368 
88 1 0.00044 0.0112736 0.00394383 1.35023e-05 -0.000122588 2.63375e-05 0 6.11186e-09 -3.70617e-08 0 -0.125134 0.126277 0.00141371 
152 1 0.0005 0.011925 0.00475453 3.81834e-05 -0.000174698 -3.68142e-05 0 -8.17312e-08 -6.84498e-08 0 0.0446549 0.00260003 0.0807426 
85 1 0.00044 0.012133 0.00389329 3.14585e-06 -0.000128187 -1.39565e-05 0 1.82152e-08 -2.00152e-08 0 -0.0566187 0.00486472 0.0101759 
151 1 0.0005 0.012894 0.00492836 -2.4127e-05 -0.000182989 -1.31848e-05 0 -3.35196e-08 -4.40418e-09 0 -0.0105262 0.0062549 0.0242806 
99 1 0.00056 0.0131217 0.00399481 1.0814e-05 -0.000148318 -9.29191e-06 0 7.41865e-08 5.46687e-08 0 0.00583519 0.01031 0.0279905 
174 1 0.00046 0.0137544 0.00483784 -4.51984e-05 -0.000179916 -1.89383e-06 0 -4.65998e-10 4.43857e-08 0 0.00131097 -0.00618542 0.0287122 
110 1 0.00054 0.0141777 0.00402809 1.00341e-06 -0.000157494 3.71571e-06 0 9.02205e-08 6.99255e-08 0 0.000903429 -0.00735817 0.0191052 
126 1 0.00052 0.0146993 0.00489098 6.87793e-06 -0.000169325 4.2684e-06 0 6.09759e-08 5.11043e-08 0 0.00724467 0.0114218 -0.0178495 
25 1 0.00052 0.0151463 0.0039591 1.87838e-05 -0.000160107 1.43789e-05 0 9.04599e-08 9.34877e-09 0 -0.00148588 0.0066098 0.0203456 
47 1 0.0005 0.0160714 0.00415553 4.33922e-05 -0.000167314 2.86609e-06 0 5.24539e-08 -1.60141e-08 0 -0.0216555 -0.0181201 -0.0375812 
79 1 0.00046 0.0167688 0.00468929 2.18197e-05 -0.000169596 -4.4905e-06 0 2.12427e-08 -2.60502e-08 0 -0.0677299 -0.0475634 0.0339244 
56 1 0.0005 0.0170206 0.00386768 -2.12721e-05 -0.000161771 -8.94068e-06 0 5.85051e-08 -3.79924e-08 0 0.0719316 0.0281945 -0.028164 
77 1 0.00046 0.0176519 0.00460841 6.56493e-06 -0.000175918 -4.70315e-06 0 2.4147e-08 -2.11532e-08 0 0.00780448 0.0536822 -0.00336525 
130 1 0.00052 0.0179536 0.00377719 9.36883e-06 -0.000151178 -3.66133e-06 0 5.21786e-08 -3.96249e-08 0 -0.00764648 -0.0378632 0.0469124 
2 1 0.00058 0.0186868 0.00453817 3.03201e-05 -0.000179577 -9.73521e-06 0 5.34884e-08 -1.92376e-08 0 -0.0605471 -0.0400758 -0.0102006 
73 1 0.00046 0.0193996 0.0039249 1.43967e-05 -0.000159534 -6.95886e-06 0 3.19665e-08 -2.04617e-09 0 0.092608 0.0488036 0.0646225 
23 1 0.00054 0.0197419 0.00478833 -2.66714e-05 -0.000185617 -1.96129e-05 0 2.28118e-08 3.90744e-08 0 -0.0392904 0.0225272 -0.0114561 
135 1 0.0005 0.00118493 0.00594954 1.46596e-05 -0.000237935 -2.4423e-05 0 2.80186e-08 1.1354e-08 0 0.18903 0.0176351 0.0786901 
197 1 0.00042 0.000310577 0.00650285 -3.99128e-05 -0.000276499 -4.97842e-06 0 -7.61741e-09 1.16549e-08 0 -0.0281813 0.0869493 0.0785595 
58 1 0.0005 7.49549e-05 0.005715 -3.26099e-05 -0.000212309 -2.72569e-05 0 -5.95967e-09 2.9068e-08 0 0.117803 0.213915 0.0571752 
139 1 0.0005 0.001803 0.00521777 -7.07934e-06 -0.000205011 -8.21006e-06 0 6.31287e-09 5.3622e-09 0 -0.208306 -0.0160275 0.0271977 
109 1 0.00054 0.0021195 0.00645892 -2.06108e-05 -0.000260492 -6.86994e-06 0 3.52051e-08 4.23328e-09 0 -0.00167678 0.023145 0.0452692 
156 1 0.0005 0.00261899 0.00563285 3.54227e-05 -0.000229693 3.16791e-07 0 1.02818e-08 -2.83641e-09 0 0.0345397 -0.06786 0.00058676 
175 1 0.00046 0.00311566 0.00641084 -2.96496e-05 -0.000249286 -8.41653e-06 0 1.09042e-08 -1.0146e-08 0 -0.0765949 -0.012325 0.0391631 
114 1 0.00054 0.00357239 0.00562831 1.90715e-05 -0.000226835 -6.5327e-06 0 4.75633e-09 -3.30773e-08 0 0.0293734 0.0622294 -0.00123553 
185 1 0.00046 0.00443202 0.00591207 1.72497e-05 -0.000223399 -6.82463e-06 0 -2.72367e-09 -1.61189e-08 0 0.045856 -0.0457434 0.00780829 
102 1 0.00056 0.00534597 0.00576117 2.50127e-05 -0.000217688 -4.70459e-06 0 7.35644e-09 1.85689e-09 0 0.00505535 0.0254891 0.0280047 
192 1 0.00044 0.00593879 0.00650225 -4.27825e-05 -0.000243243 -4.55375e-06 0 7.11709e-09 8.9676e-11 0 0.0223067 0.0161508 -0.00998742 
188 1 0.00044 0.00628213 0.00553425 2.43943e-05 -0.000202434 -4.29828e-06 0 -5.19541e-09 5.57351e-08 0 -0.0846893 -0.0128912 -0.0279004 
149 1 0.0005 0.00678251 0.00637445 -3.07296e-05 -0.000236471 -8.41559e-06 0 2.75297e-08 4.51089e-08 0 -0.0135371 -0.0206218 0.0189308 
131 1 0.00052 0.00719276 0.00549522 -2.4969e-05 -0.000200328 -4.83628e-06 0 -1.17357e-08 8.94574e-08 0 0.0240455 0.00874181 0.0387716 
237 1 0.00052 0.00769036 0.00633591 1.47771e-05 -0.00023044 7.40808e-06 0 3.0257e-08 5.76203e-08 0 0.00217304 0.0251566 0.0256209 
159 1 0.00048 0.00816559 0.00556049 -2.62417e-05 -0.000206163 1.47694e-05 0 -1.88585e-08 1.65992e-08 0 -0.0247408 -0.00554839 0.0286689 
125 1 0.00052 0.00862578 0.00633222 -3.20614e-05 -0.000225744 1.97059e-05 0 -1.40093e-08 5.95317e-08 0 0.00265025 -0.0256931 0.00584426 
136 1 0.0005 0.00924494 0.00566101 -4.70071e-05 -0.000216063 2.10969e-05 0 -5.31362e-08 2.15407e-08 0 0.0368937 -0.0223275 0.00889046 
170 1 0.00048 0.0101032 0.00575205 4.476e-05 -0.000231906 5.61222e-05 0 -2.90887e-08 -7.88926e-08 0 -0.115493 0.014778 0.0695338 
167 1 0.00048 0.0109169 0.00555351 -5.06646e-06 -0.000237845 1.37945e-05 0 -7.32797e-08 -1.0707e-07 0 0.0684778 -0.00467213 -0.15946 
123 1 0.00052 0.0113724 0.00651058 -4.22073e-05 -0.00024541 -3.02605e-05 0 -1.35828e-08 8.76632e-08 0 0.0238072 0.0421128 -0.0462031 
168 1 0.00048 0.011745 0.00566467 2.60985e-05 -0.000231442 -4.76505e-05 0 -1.21182e-07 -4.47258e-08 0 -0.0458984 0.00819334 0.0288333 
150 1 0.0005 0.0123229 0.00640334 1.83575e-05 -0.00024608 -3.53835e-05 0 -7.18302e-08 -5.98672e-08 0 0.00463819 -0.0444402 0.020227 
196 1 0.00042 0.0125087 0.00559694 -2.28987e-05 -0.000218526 -2.80524e-05 0 -5.89962e-08 -2.7362e-08 0 0.0125087 -0.0105179 0.0467652 
157 1 0.0005 0.0132042 0.00609278 2.90979e-05 -0.000234348 -1.76963e-05 0 -9.36356e-08 -1.60961e-08 0 0.0188891 0.0316772 0.0194397 
96 1 0.00058 0.0141449 0.00577121 4.28851e-05 -0.000214843 -1.2096e-05 0 -1.35424e-07 -3.87291e-09 0 -0.00703673 -0.0268619 0.00814264 
115 1 0.00054 0.0151679 0.00589316 -1.46308e-05 -0.00021067 -1.13417e-05 0 -7.9634e-08 -1.54472e-08 0 -0.0357357 0.0264694 0.00668573 
143 1 0.0005 0.0156696 0.00502212 -7.56683e-06 -0.000176617 3.73759e-06 0 1.53842e-08 -7.47224e-09 0 0.0282482 -0.0032319 0.0446015 
141 1 0.0005 0.0160451 0.00623947 -4.83823e-05 -0.00021269 6.20204e-06 0 -3.43987e-08 -1.83053e-08 0 -0.0327175 -0.0622103 0.0598877 
146 1 0.0005 0.0165066 0.00551965 2.89194e-05 -0.000185267 5.0768e-06 0 -1.41187e-08 -2.69322e-08 0 0.051907 0.046602 -0.0128671 
195 1 0.00044 0.0169762 0.00632259 3.21564e-05 -0.000227105 1.48118e-06 0 -9.73943e-09 1.81331e-08 0 0.0477061 0.115558 0.101498 
190 1 0.00044 0.0173093 0.00537642 -4.85919e-05 -0.000179791 -2.54637e-06 0 -2.95094e-09 -1.57305e-08 0 -0.00982869 -0.0609102 -0.00432806 
101 1 0.00056 0.0180645 0.0062821 -1.12464e-05 -0.000237472 -7.57836e-06 0 -7.31194e-09 5.49889e-09 0 -0.0453881 0.014356 0.0932468 
147 1 0.0005 0.0181338 0.00535544 3.12852e-05 -0.000178564 -7.75753e-06 0 -1.05842e-08 -1.76767e-08 0 0.056109 0.052013 0.00396076 
172 1 0.00048 0.0192796 0.0063595 2.46256e-05 -0.000252048 -1.47906e-05 0 -4.55657e-08 4.14085e-08 0 -0.085692 -0.13614 0.148632 
144 1 0.0005 0.0190492 0.00549012 -4.44854e-05 -0.000178162 -1.6812e-05 0 -3.94859e-08 2.56986e-08 0 0.0424667 -0.0321572 -0.00576485 
194 1 0.00044 0.00125542 0.00681353 -2.73404e-05 -0.000284851 -1.96374e-05 0 2.05619e-08 2.34767e-09 0 -0.174952 0.0288478 0.00579462 
107 1 0.00054 0.00113141 0.00795894 -3.38667e-05 -0.000303808 -9.12849e-06 0 4.38368e-08 -4.98151e-09 0 0.0188422 0.0466909 0.0021644 
193 1 0.00044 0.000590463 0.00725975 -4.2113e-05 -0.000300183 -9.09929e-06 0 1.19518e-08 2.17332e-09 0 0.0554966 0.0367655 -0.00461321 
211 1 0.00056 9.95184e-05 0.00807613 1.49646e-05 -0.000307961 -5.90585e-06 0 4.48802e-08 1.51356e-08 0 -0.0137654 -0.0509582 0.00744008 
137 1 0.0005 0.00189367 0.00742502 7.74856e-06 -0.000293335 -1.17651e-05 0 3.40193e-08 -2.21393e-10 0 0.0298997 -0.0945572 0.0136274 
177 1 0.00046 0.00204527 0.00829832 5.5329e-07 -0.000306966 -9.89838e-06 0 3.35147e-08 -6.4801e-09 0 -0.0342788 -0.0348059 0.00957952 
118 1 0.00054 0.00282521 0.00725599 3.67542e-05 -0.000281662 -5.88316e-06 0 3.59439e-08 -1.09559e-08 0 0.046229 0.0616808 0.0131978 
273 1 0.00048 0.00291836 0.00819987 1.2865e-05 -0.000301311 -3.42991e-06 0 3.28668e-08 -9.89493e-09 0 -0.0282928 0.0359883 0.0200855 
132 1 0.00052 0.00373735 0.00772291 -4.70278e-05 -0.000287898 -3.42728e-06 0 2.25288e-08 -1.24084e-08 0 0.0100477 -0.0260807 0.0017183 
127 1 0.00052 0.00399017 0.00673786 -1.13161e-05 -0.000256283 2.48323e-06 0 4.42558e-09 -3.43223e-08 0 -0.00710808 -0.00515624 0.0286513 
142 1 0.0005 0.00471219 0.00768226 1.72877e-05 -0.000284369 -9.92095e-06 0 -9.4067e-09 -4.34451e-08 0 0.00323132 0.0249894 0.0047128 
97 1 0.00058 0.00504586 0.00677362 -4.33679e-05 -0.000255482 -1.36423e-05 0 -1.58241e-08 -6.68421e-08 0 -0.00970588 -0.00777763 0.0397815 
129 1 0.00052 0.00567871 0.00765956 7.98975e-06 -0.000279597 -6.84138e-06 0 -2.22861e-08 -6.13931e-08 0 -0.00928234 -0.0223571 0.00625969 
145 1 0.0005 0.00645588 0.00722426 -4.89198e-05 -0.000261039 -7.98874e-06 0 8.65759e-09 1.40697e-09 0 0.0101639 0.0189402 0.0195428 
117 1 0.00054 0.007031 0.00808629 -1.8846e-05 -0.000295428 -2.9305e-06 0 5.25322e-08 -1.51793e-08 0 0.0071312 -4.92696e-05 0.0309357 
158 1 0.00048 0.00735259 0.0071956 -2.80691e-05 -0.000261437 1.32255e-06 0 3.22458e-08 2.62032e-08 0 -0.00400692 -0.0135285 0.0231982 
303 1 0.00042 0.00791325 0.00787637 -4.34141e-05 -0.000288623 1.23783e-05 0 3.12532e-08 1.69853e-08 0 -0.0121738 -0.00104405 0.0234365 
184 1 0.00046 0.00823302 0.00712374 2.59556e-05 -0.000257177 1.82996e-05 0 2.25147e-08 3.57078e-08 0 0.0136941 0.00451754 0.0431576 
111 1 0.00054 0.00883335 0.00784855 -3.81694e-05 -0.000293846 3.13195e-05 0 1.05203e-07 1.7537e-09 0 -0.012224 0.00175705 0.0301651 
210 1 0.00056 0.00940632 0.00692498 -2.37608e-06 -0.000251183 4.24618e-05 0 -1.1158e-08 -1.89433e-08 0 0.00922549 0.0316425 0.0815806 
233 1 0.00052 0.00982216 0.00782928 -1.57412e-05 -0.000310597 4.26508e-05 0 7.27257e-08 -3.05072e-09 0 0.00167638 -0.00608927 0.00616368 
100 1 0.00056 0.0103978 0.00668143 -1.47472e-05 -0.0002375 5.23221e-05 0 1.3479e-08 8.22648e-08 0 0.0838085 -0.0561702 -0.0695339 
213 1 0.00056 0.0107311 0.00823346 4.979e-05 -0.000322037 -9.47527e-06 0 -2.98525e-09 -1.03689e-07 0 0.00529227 0.00783042 -0.0631831 
199 1 0.00042 0.011027 0.00736072 2.22644e-05 -0.000131925 9.15212e-06 0 2.42936e-07 3.50838e-08 0 -0.101267 0.1001 -0.213732 
120 1 0.00052 0.0117108 0.00820798 -4.55597e-05 -0.000312053 -3.51747e-05 0 -1.03873e-09 -4.14301e-08 0 -0.00915141 -0.00961176 0.0088412 
112 1 0.00054 0.0120287 0.00729889 -4.5975e-05 -0.000276714 -3.53448e-05 0 2.92139e-08 -4.34504e-08 0 0.0111436 0.000784943 0.0536867 
161 1 0.00048 0.0128456 0.00785119 4.23607e-05 -0.000291656 -2.56722e-05 0 -2.41735e-08 1.21315e-08 0 0.0203306 0.0152197 0.00204277 
186 1 0.00046 0.0130108 0.00699184 4.20701e-05 -0.000264603 -2.28267e-05 0 -5.72967e-08 -1.32674e-08 0 -0.0321577 0.0173874 0.0388949 
104 1 0.00056 0.0138392 0.00781543 -5.04024e-06 -0.000283276 -2.30399e-05 0 -4.74051e-08 3.33042e-08 0 -0.0152271 -0.00786978 0.029057 
148 1 0.0005 0.0138946 0.00679842 1.64328e-05 -0.000256417 -2.26792e-05 0 -7.0765e-08 9.14539e-09 0 0.0119981 -0.00769252 -0.011847 
154 1 0.0005 0.0148422 0.00792189 -1.6913e-05 -0.000284623 -1.28798e-05 0 1.02739e-08 2.13675e-08 0 -0.0174967 -0.00415137 0.0120059 
98 1 0.00058 0.0148982 0.00691122 -4.21217e-05 -0.000250341 -1.5894e-05 0 -7.76061e-08 7.12331e-09 0 0.0193784 0.00785655 0.0395208 
128 1 0.00052 0.0158103 0.00811088 -3.94419e-05 -0.000290729 -3.52138e-07 0 4.20366e-08 2.57157e-08 0 -0.0282352 0.010522 0.0292106 
121 1 0.00052 0.0159054 0.00713292 -1.21974e-05 -0.000260752 3.63087e-06 0 -4.87988e-09 -6.42164e-09 0 0.0329879 0.00624153 0.027459 
124 1 0.00052 0.0166727 0.00770141 -3.70828e-05 -0.000279792 8.26757e-06 0 1.85658e-08 3.99196e-08 0 -0.0199104 -0.000550452 -0.000480476 
119 1 0.00054 0.0174776 0.00715021 -3.33274e-05 -0.000280516 -4.88487e-06 0 2.73905e-08 5.34904e-08 0 0.0203008 0.0128509 -0.0180513 
165 1 0.00048 0.0181438 0.00805613 -3.83096e-05 -0.000305859 3.42178e-06 0 8.99437e-09 2.20361e-08 0 -0.0120848 -0.0543711 0.00403657 
113 1 0.00054 0.0184937 0.00717514 -2.02095e-05 -0.00029175 4.27498e-06 0 1.73439e-08 1.92852e-08 0 0.040998 -0.016377 0.0208088 
173 1 0.00048 0.0191653 0.00778198 -4.84051e-05 -0.000303669 9.27106e-07 0 1.57675e-08 2.39005e-08 0 -0.00731296 0.0542751 0.00059005 
140 1 0.0005 0.0197452 0.00712978 -3.46879e-05 -0.000303318 -3.3733e-06 0 3.19652e-09 2.6989e-08 0 -0.0165973 -0.027377 -0.0149146 
215 1 0.00054 0.00158788 0.00914998 2.66777e-05 -0.000323037 -7.58167e-06 0 5.60959e-08 -2.49903e-08 0 0.0266259 -0.00327586 0.00392063 
301 1 0.00042 0.000791468 0.00875828 -3.96098e-06 -0.000318493 -6.79411e-06 0 2.29997e-08 -5.27271e-09 0 -0.0391866 -0.00558427 0.0120129 
248 1 0.0005 0.000721073 0.00962899 -1.72888e-05 -0.000330406 -5.65542e-06 0 4.16925e-08 -1.44964e-08 0 0.0177293 -0.00509436 -4.69238e-05 
229 1 0.00052 0.00230717 0.00997615 2.41907e-05 -0.000337198 -5.75052e-06 0 3.92899e-08 -1.85629e-08 0 -0.00571698 0.00632756 0.00748172 
236 1 0.00052 0.00257058 0.00906473 4.87165e-05 -0.000319133 -5.58194e-06 0 4.92695e-08 -1.25669e-08 0 0.00822681 0.0010613 0.0131563 
291 1 0.00046 0.00321843 0.00972721 7.50784e-06 -0.00033009 4.29148e-07 0 2.80978e-08 -5.51406e-10 0 -0.017502 -0.00748906 0.0230376 
286 1 0.00046 0.0034674 0.00889115 -7.08428e-06 -0.000311202 -2.43643e-06 0 2.84695e-08 -3.74514e-09 0 0.0316724 -0.01394 -0.00203605 
234 1 0.00052 0.0041805 0.00954441 6.12283e-06 -0.000324022 -1.74078e-06 0 3.46636e-08 2.5781e-09 0 0.000223543 0.0257379 0.0275273 
201 1 0.00058 0.00434758 0.00858017 1.74262e-06 -0.000300187 -4.5611e-06 0 3.64266e-08 -1.57023e-08 0 -0.0119357 0.00596719 0.0113869 
265 1 0.00048 0.00515628 0.00943813 -2.81666e-05 -0.000321332 4.77357e-06 0 2.62405e-08 -1.81007e-08 0 -0.013288 -0.0219189 0.015878 
134 1 0.00052 0.00534347 0.00853132 -1.04316e-05 -0.000298985 -2.78599e-07 0 3.30022e-09 -6.60401e-08 0 0.0185927 -0.00251341 0.0139958 
247 1 0.0005 0.0061034 0.00937766 9.49774e-06 -0.000322291 5.9037e-06 0 7.09765e-09 -5.26979e-08 0 -0.0127102 0.0184595 0.00410119 
198 1 0.00042 0.0062234 0.00848903 -4.45245e-05 -0.000305922 -3.26963e-06 0 7.4855e-09 -4.03258e-08 0 0.00850842 -0.00306903 -0.0108965 
264 1 0.00048 0.00693455 0.00902748 3.54547e-06 -0.000320722 3.06119e-06 0 8.80042e-09 -3.7004e-08 0 -0.0103995 -0.00664307 0.011722 
232 1 0.00052 0.00739547 0.00987155 -2.7703e-05 -0.000339484 1.61621e-05 0 7.99542e-09 -4.20947e-08 0 0.00749833 0.00280804 0.0121747 
176 1 0.00046 0.00777895 0.00871547 -4.92713e-05 -0.000317198 1.08361e-05 0 4.34422e-08 -1.70395e-08 0 0.00731594 0.00747887 0.0230898 
274 1 0.00048 0.0081925 0.00951337 1.26179e-05 -0.000334914 1.51222e-05 0 2.25181e-08 -3.18918e-08 0 -0.00494809 -0.00812727 -0.000471337 
244 1 0.0005 0.00869796 0.00879104 4.93873e-05 -0.000322612 2.16281e-05 0 9.71844e-08 1.88599e-08 0 0.0133795 -0.0028658 0.0217974 
228 1 0.00052 0.00909168 0.00970422 -4.18982e-05 -0.000340447 1.49133e-05 0 3.35636e-08 5.03347e-08 0 -0.00998358 0.00814608 0.0155092 
203 1 0.00058 0.00970893 0.00886133 -9.33208e-06 -0.000321824 2.92179e-05 0 8.87658e-08 7.69677e-08 0 0.00159243 0.000556618 0.000877966 
225 1 0.00054 0.0106619 0.00928845 -3.72943e-05 -0.000308715 -3.56063e-07 0 6.79231e-08 3.60893e-08 0 -0.006862 0.000518415 -0.0273721 
284 1 0.00046 0.0113664 0.00989206 1.32074e-05 -0.000321627 -2.02087e-05 0 3.4059e-08 3.8962e-08 0 -0.00852889 -0.0205594 0.012237 
281 1 0.00046 0.0116047 0.0090782 3.24679e-05 -0.000314617 -2.50433e-05 0 1.01983e-09 2.26126e-08 0 0.01133 0.00552225 -0.00623823 
209 1 0.00056 0.0122904 0.00975911 -1.82378e-05 -0.000324073 -1.87407e-05 0 3.28691e-08 5.93016e-08 0 0.0129344 0.0178656 0.0171389 
105 1 0.00056 0.0125432 0.00875984 4.17083e-05 -0.000308802 -2.4568e-05 0 3.57549e-09 4.42003e-08 0 -0.0171195 -0.00672144 0.00855122 
302 1 0.00042 0.0132073 0.00962395 2.0062e-05 -0.000325518 -3.67143e-05 0 1.95149e-08 1.03897e-08 0 -0.0226425 -0.0109424 0.0483078 