ITEM: TIMESTEP
400750000
ITEM: NUMBER OF ATOMS
400
ITEM: BOX BOUNDS pp ff ff
0 0.02
0 0.04
-0.00065 0.00065
ITEM: ATOMS id type radius x y z vx vy vz fx fy fz omegax omegay omegaz 
74 1 0.00046 0.00132832 0.000444349 3.36586e-05 -1.71843e-05 -3.57189e-06 0 -2.57691e-08 -6.78653e-09 0 0.00113774 0.0183243 0.0227188 
35 1 0.00052 0.00091448 0.00128461 -1.66342e-05 -2.46069e-05 7.28865e-06 0 -5.60441e-08 1.19059e-08 0 -0.0223787 0.0189304 -0.0285289 
7 1 0.00056 0.000242545 0.000443421 -3.64628e-05 2.539e-06 -6.76996e-07 0 7.83494e-09 -3.33665e-09 0 -0.000333869 0.00867539 -0.00512755 
49 1 0.0005 1.41148e-06 0.00131847 4.93031e-05 -3.13514e-05 -1.12934e-05 0 -6.45113e-08 -2.52907e-08 0 0.00377462 -0.01993 0.0876944 
43 1 0.0005 0.0018371 0.00127942 5.09221e-06 -2.397e-05 -8.469e-06 0 -4.69642e-08 -2.3103e-08 0 0.0196302 -0.0185748 0.006775 
30 1 0.00052 0.00226935 0.000435951 -1.24497e-05 -1.07978e-05 -1.14403e-06 0 -2.28824e-08 -6.91006e-09 0 -0.000369936 -0.0139101 0.0100579 
67 1 0.00048 0.00274327 0.00128803 4.63423e-05 -2.38208e-05 1.00865e-07 0 -4.06392e-08 -6.63327e-09 0 -0.00018619 0.0161915 0.0183731 
17 1 0.00054 0.00324824 0.000515639 4.67087e-05 -1.06813e-05 1.97433e-06 0 -2.58722e-08 -2.26633e-09 0 -0.00568338 0.00937167 0.00580433 
86 1 0.00044 0.00374723 0.00129103 -1.5404e-05 -2.45534e-05 6.37187e-06 0 -3.09859e-08 1.10723e-09 0 0.0125953 0.000641812 0.0141929 
84 1 0.00044 0.00460804 0.00119534 -2.0603e-05 -1.9114e-05 2.67084e-06 0 -2.45757e-08 -1.53312e-09 0 -0.00441997 -0.00291686 0.0107047 
54 1 0.0005 0.00417415 0.000417246 3.04549e-05 -7.87603e-06 1.19645e-06 0 -1.51513e-08 -2.93822e-11 0 -0.000932242 -0.0106759 0.00548367 
46 1 0.0005 0.00511772 0.000469583 4.04467e-05 -9.33669e-06 2.18787e-06 0 -1.46232e-08 -2.30191e-10 0 -0.000868693 0.0131708 0.00665187 
15 1 0.00054 0.00567244 0.00130802 -2.65834e-05 -2.19242e-05 3.79177e-06 0 -4.96597e-08 -3.57945e-09 0 0.00847816 0.00503968 0.00274413 
72 1 0.00048 0.00664479 0.00128871 -2.02466e-06 -2.60197e-05 8.0522e-06 0 -3.82961e-08 -3.5678e-09 0 -0.00562306 -0.00620516 0.0289985 
78 1 0.00046 0.00602316 0.00041842 -1.20537e-05 -8.08977e-06 3.48628e-06 0 -1.10176e-08 -3.96339e-10 0 -0.00208441 -0.0181161 0.0108174 
52 1 0.0005 0.00693241 0.000444535 3.91278e-05 -4.82454e-06 6.21829e-06 0 -1.04453e-08 2.93837e-09 0 0.000916033 0.0196155 0.00558904 
8 1 0.00056 0.00824684 0.00117586 -1.82355e-06 -2.22015e-05 5.93202e-06 0 -4.57435e-08 -9.90285e-09 0 -0.00487479 0.0188397 0.0564532 
92 1 0.00042 0.00779487 0.000364798 3.24564e-05 4.6474e-07 -7.15011e-07 0 -3.95695e-10 -3.95697e-09 0 0.0020172 -0.0258688 -0.0134176 
60 1 0.00048 0.00876678 0.000397402 -3.28708e-05 1.0621e-06 8.21309e-06 0 9.63699e-10 4.44353e-09 0 -7.19641e-05 -0.0152659 -0.0112352 
32 1 0.00052 0.00930744 0.0013862 3.24568e-05 -3.65975e-05 -3.04181e-06 0 -6.58138e-08 -2.6035e-08 0 0.0390592 -0.103576 0.0505011 
20 1 0.00054 0.00975836 0.0004909 -2.76781e-05 -6.25163e-06 1.83423e-06 0 -1.13778e-08 -5.94925e-09 0 0.00136878 0.0134534 0.00563224 
28 1 0.00052 0.0103902 0.00131246 -4.92787e-05 -2.85724e-05 -2.04266e-06 0 -4.83924e-08 -1.78691e-08 0 0.00789174 -0.00301067 0.0262204 
34 1 0.00052 0.0113823 0.00139187 -4.32784e-06 -3.07304e-05 9.83557e-07 0 -5.3806e-08 -8.27153e-09 0 0.0141074 0.00323573 0.00773291 
59 1 0.00048 0.0107664 0.00044406 -3.96086e-06 -8.84936e-06 -4.92909e-07 0 -1.14556e-08 -5.44507e-09 0 -0.000657097 -0.0119604 0.00835043 
9 1 0.00056 0.0117818 0.000485301 -1.32742e-05 -1.31717e-05 5.45775e-07 0 -2.83104e-08 -3.88457e-09 0 -0.00690116 0.00638093 0.0148518 
19 1 0.00054 0.0124097 0.00132869 1.95463e-05 -2.80944e-05 3.9137e-06 0 -5.71087e-08 3.34885e-09 0 0.0106674 -0.00389261 0.0139929 
68 1 0.00048 0.0127831 0.000442177 1.3181e-05 -1.25834e-05 2.81279e-06 0 -1.86156e-08 2.2849e-09 0 -0.0019268 -0.00913003 0.00764884 
12 1 0.00056 0.013437 0.00122552 3.75182e-05 -2.40439e-05 4.81392e-06 0 -5.91826e-08 1.0083e-08 0 -0.00305681 0.00403855 0.00272961 
94 1 0.00042 0.0136155 0.000329319 1.89547e-05 -1.13594e-05 4.17732e-06 0 -1.20052e-08 4.0653e-09 0 0.000495958 0.00986575 0.0184545 
48 1 0.0005 0.0143569 0.00161858 1.99029e-05 -3.31023e-05 9.07589e-06 0 -6.2815e-08 1.63987e-08 0 -0.00545493 -0.0126577 0.0337448 
33 1 0.00052 0.014367 0.000726593 -4.71808e-05 -1.62857e-05 5.308e-06 0 -3.31958e-08 9.3002e-09 0 0.00604788 -0.0034427 -0.00450446 
83 1 0.00046 0.0156508 0.001285 1.72248e-05 -2.72045e-05 5.23809e-06 0 -4.11549e-08 2.40794e-09 0 -0.0551019 -0.0707852 0.0177002 
29 1 0.00052 0.0152292 0.000426397 3.7231e-06 -1.09773e-05 3.54604e-06 0 -2.3176e-08 6.12493e-09 0 0.00464502 -0.0027288 0.0152116 
91 1 0.00044 0.0165539 0.00131727 3.54547e-05 -3.15973e-05 -6.57014e-06 0 -4.393e-08 -1.13621e-08 0 -0.0462247 0.0723747 0.0712958 
53 1 0.0005 0.0161595 0.00050341 -4.85386e-05 -1.12385e-05 2.88456e-06 0 -2.10995e-08 -1.17676e-09 0 0.0822016 0.0104606 -0.0230051 
65 1 0.00048 0.0177995 0.0013314 -3.92382e-05 -3.42637e-05 -1.28334e-06 0 -5.79225e-08 -3.50077e-09 0 0.00209119 -0.00536975 0.0628695 
4 1 0.00058 0.0171622 0.000539054 -3.8784e-05 -6.59628e-06 -3.93319e-06 0 -2.13015e-08 -1.53601e-08 0 -0.00354812 -0.00581074 0.00125712 
5 1 0.00056 0.0182418 0.000485966 3.096e-05 -4.00828e-06 1.1201e-06 0 -1.22608e-08 1.52798e-09 0 -0.000890455 0.00729982 0.00284709 
40 1 0.0005 0.0189235 0.00128039 6.72355e-06 -3.45347e-05 -2.49511e-07 0 -6.50118e-08 -1.50752e-09 0 0.00617306 -0.00272172 0.0716754 
42 1 0.0005 0.0192498 0.000430129 -3.72737e-05 -5.75377e-07 4.20338e-06 0 -1.6389e-09 7.52844e-09 0 -0.000864673 -0.00949629 0.000219784 
18 1 0.00054 0.000914317 0.00230542 5.14548e-06 -5.5271e-05 8.34772e-06 0 -1.39139e-07 1.47546e-08 0 0.0227793 -0.0322195 0.0694697 
50 1 0.0005 0.000392067 0.00316026 -4.9345e-05 -7.75598e-05 -1.29104e-05 0 -1.48399e-07 -2.83776e-08 0 -0.00107912 -0.00703776 -0.00832896 
182 1 0.00046 0.00207501 0.0029487 -3.17454e-05 -6.83557e-05 -8.25171e-06 0 -1.01354e-07 -2.98576e-08 0 0.0208567 0.0214583 0.0233216 
24 1 0.00052 0.00232819 0.00212087 -1.41959e-06 -4.37075e-05 -6.40544e-06 0 -9.05667e-08 -2.8372e-08 0 -0.0225847 0.0179984 0.0240663 
189 1 0.00044 0.00293164 0.00285139 3.50109e-05 -6.20575e-05 -3.6484e-06 0 -7.85302e-08 -1.69711e-08 0 0.0229118 -0.0303353 0.00639251 
66 1 0.00048 0.00326059 0.00201912 -3.46654e-05 -4.02503e-05 4.33348e-06 0 -6.15408e-08 -6.2426e-09 0 -0.00261421 -0.0170062 0.0116111 
22 1 0.00054 0.00387275 0.00297734 -3.02218e-05 -6.47389e-05 5.50126e-06 0 -1.5152e-07 -1.71054e-08 0 -0.0116264 0.0266715 0.0435285 
70 1 0.00048 0.00413256 0.00209004 3.70504e-05 -3.81069e-05 6.87216e-06 0 -5.73853e-08 -4.54479e-10 0 -0.00266565 0.0158302 -0.00282741 
164 1 0.00048 0.00499033 0.00300328 3.07542e-05 -7.08822e-05 -3.82823e-06 0 -8.43737e-08 -3.66801e-08 0 0.0389221 -0.104958 0.0577144 
69 1 0.00048 0.00497975 0.00196019 -2.23732e-05 -3.65328e-05 5.33792e-06 0 -5.35728e-08 -2.01893e-09 0 -0.00680468 -0.0118721 0.0180815 
89 1 0.00044 0.00564978 0.00243794 -2.11247e-06 -5.04054e-05 8.32719e-06 0 -4.82898e-08 -1.21555e-08 0 0.0470554 0.0361716 -0.0063153 
44 1 0.0005 0.00624245 0.00307337 -3.67063e-05 -6.66224e-05 1.09828e-05 0 -9.42529e-08 -2.26136e-08 0 -0.000939667 0.0166575 0.0257946 
80 1 0.00046 0.00642844 0.00213307 3.11799e-05 -5.11597e-05 7.13878e-06 0 -5.69663e-08 -1.11491e-08 0 0.0218442 -0.0585236 0.0190659 
93 1 0.00042 0.00699565 0.00270912 -2.75116e-05 -5.86093e-05 1.26938e-05 0 -5.04275e-08 -2.67381e-09 0 -0.0705704 0.0157797 -0.00675787 
64 1 0.00048 0.00732214 0.00190957 4.80419e-05 -4.85662e-05 1.53783e-05 0 -6.71663e-08 6.65072e-10 0 0.0393159 0.0392342 0.0092136 
90 1 0.00044 0.00773268 0.00291255 1.77683e-05 -6.36929e-05 1.23974e-05 0 -6.33756e-08 -1.01521e-08 0 0.0274177 -0.0245931 0.018417 
1 1 0.00058 0.00829163 0.00219811 -3.97226e-05 -5.51913e-05 1.39403e-05 0 -1.34098e-07 -1.16827e-08 0 0.00632391 -0.0190053 0.00112309 
31 1 0.00052 0.0087704 0.0031182 4.55657e-05 -5.93348e-05 1.65459e-05 0 -1.06457e-07 -1.37319e-08 0 -0.00147805 0.0337339 0.000253402 
82 1 0.00046 0.00925286 0.00230719 1.80717e-05 -5.71583e-05 5.22018e-06 0 -6.97258e-08 -1.48395e-08 0 -0.034883 0.0202031 -0.0127927 
14 1 0.00054 0.00981056 0.0031282 -3.93388e-05 -6.5945e-05 8.09514e-06 0 -1.26281e-07 -2.48348e-08 0 0.0169225 -0.0221495 0.00639848 
39 1 0.0005 0.010141 0.00222429 2.40231e-05 -5.36064e-05 -6.43695e-07 0 -8.26761e-08 -2.32973e-08 0 -0.00396937 -0.0155453 0.00600572 
162 1 0.00048 0.0107444 0.00309861 2.716e-05 -6.455e-05 7.79243e-07 0 -8.96469e-08 -1.7587e-08 0 0.0248511 0.0222786 -0.00538801 
55 1 0.0005 0.0111013 0.00228243 -4.78087e-05 -5.32389e-05 -1.88253e-06 0 -8.1984e-08 -1.70576e-08 0 -0.0304103 0.0137447 0.0183443 
27 1 0.00052 0.0116657 0.00309695 -4.25165e-05 -6.66158e-05 -5.97567e-07 0 -1.21333e-07 -1.36448e-08 0 0.0285217 -0.0193548 0.00170502 
45 1 0.0005 0.0120638 0.0022262 -4.01526e-05 -5.01242e-05 7.11991e-07 0 -7.82425e-08 -5.04033e-09 0 -0.0085607 -0.0122718 0.0122673 
26 1 0.00052 0.0126336 0.00312703 2.94528e-05 -7.05247e-05 -7.82094e-06 0 -1.34319e-07 -3.64262e-09 0 -0.0131307 0.018746 0.00179788 
10 1 0.00056 0.0131119 0.00223017 4.21294e-05 -4.93851e-05 1.26863e-06 0 -1.17812e-07 9.05916e-09 0 -0.0038522 0.0136577 0.0337381 
36 1 0.00052 0.0136617 0.00314467 2.4953e-06 -7.38581e-05 -6.82572e-07 0 -1.43485e-07 7.27422e-09 0 0.00857719 -0.0151154 0.00949533 
87 1 0.00044 0.0141734 0.00242026 2.35941e-05 -5.97994e-05 3.72999e-06 0 -7.49642e-08 6.26191e-09 0 0.00988429 -0.00740184 0.0276853 
41 1 0.0005 0.0146387 0.00314113 -2.89305e-05 -7.57143e-05 9.13791e-06 0 -1.32011e-07 1.56593e-08 0 -0.00479829 0.0126366 0.0129316 
57 1 0.0005 0.0150866 0.00224217 3.21045e-05 -5.27925e-05 1.5226e-05 0 -1.00234e-07 2.41522e-08 0 -0.00968381 0.0052103 -0.00218229 
21 1 0.00054 0.0156228 0.00308546 2.08022e-05 -6.90506e-05 2.49364e-05 0 -1.54811e-07 4.24637e-08 0 0.00887055 -0.00981677 0.0280317 
76 1 0.00046 0.0160109 0.00208952 1.69816e-05 -5.42349e-05 2.12978e-05 0 -8.06131e-08 2.30225e-08 0 0.0283318 -0.0098607 0.0414614 
71 1 0.00048 0.0165099 0.00284157 -1.31875e-05 -6.48762e-05 2.15408e-05 0 -1.06748e-07 2.40403e-08 0 -0.0334107 0.0178902 -0.028429 
81 1 0.00046 0.0169348 0.00207769 -2.13541e-05 -6.91866e-05 8.18051e-06 0 -1.00075e-07 5.13801e-09 0 0.0523333 -0.0414597 0.00280291 
63 1 0.00048 0.0173643 0.00302256 -2.48084e-05 -6.5644e-05 1.27458e-06 0 -1.10435e-07 -3.85635e-09 0 -0.00415444 -0.0320068 -0.0156472 
16 1 0.00054 0.0178709 0.00224472 7.17441e-06 -6.90003e-05 5.23434e-07 0 -1.64129e-07 -2.47664e-09 0 -0.00151846 0.0391544 0.00274979 
51 1 0.0005 0.0184507 0.00302964 -3.11061e-05 -7.2698e-05 6.58679e-08 0 -1.3422e-07 -6.05957e-09 0 0.0294268 -0.00669365 -0.0011914 
37 1 0.00052 0.0188688 0.00220991 -6.697e-06 -7.07552e-05 -3.8877e-06 0 -1.51507e-07 -1.11436e-08 0 -0.00558887 -0.038485 -0.00329315 
6 1 0.00056 0.0194408 0.00304029 1.88296e-05 -7.30525e-05 -7.90852e-06 0 -1.94318e-07 -2.29794e-08 0 -0.0114496 0.00590846 0.00397094 
13 1 0.00054 0.0198591 0.00218 2.40593e-05 -6.88066e-05 -1.41804e-05 0 -1.69414e-07 -3.9604e-08 0 -0.00773073 0.0374447 -0.00930481 
11 1 0.00056 0.00132689 0.003468 4.11056e-07 -7.90259e-05 -1.15845e-05 0 -2.05368e-07 -5.70829e-08 0 -0.0362389 -0.00629086 0.00479632 
179 1 0.00046 0.00155293 0.00438163 -3.43082e-05 -0.000103404 -7.49018e-06 0 -1.24639e-07 -2.8854e-08 0 0.0454485 -0.000233663 0.0437025 
160 1 0.00048 0.000528961 0.00405739 4.11872e-05 -9.44633e-05 -1.98644e-05 0 -1.37056e-07 -3.44766e-08 0 0.00753677 0.0315791 0.0465689 
62 1 0.00048 0.00226279 0.00383427 4.14547e-05 -8.43197e-05 -2.59167e-06 0 -1.33293e-07 -3.27309e-08 0 -0.0268516 -0.0139377 0.00214096 
171 1 0.00048 0.00263932 0.00468328 2.79416e-05 -0.000114685 1.00494e-05 0 -1.50881e-07 -2.75104e-08 0 -0.0399501 -0.170047 0.0673294 
178 1 0.00046 0.00314629 0.00368866 -1.57031e-06 -8.33017e-05 2.56195e-07 0 -1.11485e-07 -1.81335e-08 0 -0.0236384 0.0226903 0.0206635 
163 1 0.00048 0.00361186 0.00470129 5.32063e-06 -0.000124023 -6.69408e-06 0 -1.43272e-07 -3.2382e-08 0 0.0118505 -0.0349667 0.0602305 
155 1 0.0005 0.00402954 0.00391628 -2.6529e-06 -9.394e-05 6.43443e-06 0 -1.48644e-07 -2.06855e-08 0 0.015555 -0.0221151 0.0040548 
103 1 0.00056 0.00459819 0.00494723 -3.58607e-05 -0.000126625 5.64351e-06 0 -2.27464e-07 -4.95662e-08 0 0.00858452 0.0354242 0.00954742 
108 1 0.00054 0.00500682 0.00397265 -2.13321e-05 -0.000103046 4.14953e-06 0 -1.93566e-07 -4.65931e-08 0 -0.0344927 0.0197605 0.0101083 
106 1 0.00056 0.00567372 0.00479155 -4.97251e-05 -0.00012077 1.25666e-05 0 -2.20519e-07 -5.09897e-08 0 0.0165783 -0.0409391 0.0201119 
187 1 0.00046 0.00598177 0.00390417 -2.41619e-05 -9.70587e-05 1.24302e-05 0 -1.10759e-07 -2.64122e-08 0 0.00015478 -0.0157777 0.0277857 
116 1 0.00054 0.00668654 0.00459874 -2.57589e-05 -0.000110397 1.11395e-05 0 -1.85346e-07 -3.54591e-08 0 0.0244094 0.0340257 -0.00289434 
138 1 0.0005 0.00702927 0.00365574 -4.22335e-05 -8.73539e-05 1.35348e-05 0 -1.26257e-07 -1.89287e-08 0 -0.0249356 -0.0408943 0.0162124 
95 1 0.00058 0.00775559 0.00462561 4.30556e-05 -0.000107116 1.42389e-05 0 -2.25102e-07 -3.59631e-08 0 0.0132819 -0.0279268 0.0272204 
61 1 0.00048 0.00796596 0.00368204 4.42331e-05 -7.80478e-05 1.50515e-05 0 -1.05725e-07 -1.49319e-08 0 -0.0150915 0.0456254 0.00483412 
153 1 0.0005 0.00878265 0.00405861 -4.39636e-05 -7.82101e-05 2.53862e-05 0 -1.22836e-07 -1.16462e-08 0 0.00696312 -0.0429905 0.0384729 
38 1 0.0005 0.00980716 0.00486773 4.93343e-05 -8.78878e-05 4.75739e-05 0 -1.44542e-07 -1.26294e-08 0 0.032138 -0.0347514 0.0858789 
75 1 0.00046 0.00961345 0.00399966 4.05756e-05 -6.44631e-05 2.55513e-05 0 -9.24297e-08 -1.3271e-08 0 -0.0314559 0.0473916 -0.0345247 
169 1 0.00048 0.00871845 0.00490562 -1.72291e-05 -0.000115128 2.78588e-05 0 -1.30314e-07 -9.37349e-09 0 -0.00946828 0.0389512 0.0223448 
191 1 0.00044 0.0104285 0.00388005 -3.72271e-05 -6.73288e-05 1.36797e-06 0 -7.97547e-08 -1.52068e-08 0 -0.0340124 -0.0342755 0.00318411 
166 1 0.00048 0.0107831 0.00466925 4.50596e-05 -0.000150242 1.54509e-05 0 -1.21063e-07 -1.79688e-08 0 0.0202604 0.00371377 0.185915 
88 1 0.00044 0.0112882 0.00394124 1.35023e-05 -7.13106e-05 2.17959e-05 0 -8.34025e-08 -1.33592e-08 0 -0.0526661 0.0400966 -0.0152138 
152 1 0.0005 0.0119458 0.00475962 3.81834e-05 -0.000107789 -3.24168e-05 0 -1.49727e-07 -5.45426e-09 0 0.0105102 0.0174099 0.0577742 
85 1 0.00044 0.0121483 0.00389584 3.14585e-06 -7.46578e-05 -1.27595e-05 0 -8.62882e-08 -1.69103e-09 0 -0.0244129 0.0405694 0.00784285 
151 1 0.0005 0.0129161 0.00493079 -2.4127e-05 -0.000116733 -1.33663e-05 0 -1.57802e-07 3.24585e-09 0 -0.0053075 -0.0167601 0.0298565 
99 1 0.00056 0.0131393 0.00399651 1.0814e-05 -8.71864e-05 -7.51685e-06 0 -1.98883e-07 2.31527e-09 0 0.0122532 -0.0196062 0.021922 
174 1 0.00046 0.0137761 0.00483832 -4.51984e-05 -0.000113217 -5.33901e-07 0 -1.24224e-07 4.28589e-09 0 -0.0141106 0.0222108 0.0170452 
110 1 0.00054 0.0141961 0.00402773 1.00341e-06 -9.30544e-05 3.8212e-06 0 -1.8565e-07 1.32455e-08 0 -0.0103272 0.019093 0.0158556 
126 1 0.00052 0.0147206 0.00489051 6.87793e-06 -0.000113497 5.604e-06 0 -1.8142e-07 1.1864e-08 0 0.0198473 -0.0172218 0.0154046 
25 1 0.00052 0.0151649 0.00395694 1.87838e-05 -9.36992e-05 1.55682e-05 0 -1.70085e-07 2.19844e-08 0 0.00192428 -0.0156329 0.0182265 
47 1 0.0005 0.0160915 0.00415426 4.33922e-05 -0.000103109 1.38558e-05 0 -1.63102e-07 9.55596e-09 0 -0.00682698 0.0101346 -0.0153475 
79 1 0.00046 0.0167892 0.00468949 2.18197e-05 -0.00010613 5.41029e-06 0 -1.27801e-07 -3.0073e-09 0 -0.0274559 -0.0340659 0.0159639 
56 1 0.0005 0.017041 0.00386963 -2.12721e-05 -0.000107418 -6.74593e-06 0 -1.7039e-07 -1.53818e-08 0 0.0343364 -0.00877147 -0.0329833 
77 1 0.00046 0.0176735 0.00460941 6.56493e-06 -0.000112736 -1.78593e-06 0 -1.36033e-07 -8.10713e-09 0 0.0243932 0.015958 -0.0108998 
130 1 0.00052 0.0179721 0.0037784 9.36883e-06 -9.57869e-05 -3.95914e-06 0 -1.78401e-07 -1.27468e-08 0 -0.0267548 0.00525312 0.0413542 
2 1 0.00058 0.0187085 0.00454004 3.03201e-05 -0.000113267 -9.18685e-06 0 -2.76636e-07 -2.11601e-08 0 0.026893 -0.00645738 -0.0145595 
73 1 0.00046 0.0194189 0.00392677 1.43967e-05 -9.95598e-05 -9.54791e-06 0 -1.30106e-07 -1.26333e-08 0 0.0109377 -0.0303086 0.0444995 
23 1 0.00054 0.0197641 0.00479131 -2.66714e-05 -0.000115981 -1.57621e-05 0 -2.24317e-07 -3.0016e-08 0 -0.00834868 0.0199764 -0.00247478 
3 1 0.00058 0.000805742 0.00500152 1.15215e-05 -0.000120862 -1.43671e-05 0 -2.74283e-07 -5.56811e-08 0 -0.00614869 -0.0220605 0.00226547 
135 1 0.0005 0.00121328 0.0059523 1.46596e-05 -0.000161165 -1.20479e-05 0 -1.80177e-07 -3.66558e-08 0 0.00725074 0.0297316 0.0692319 
197 1 0.00042 0.00034342 0.00650333 -3.99128e-05 -0.000194038 4.36767e-06 0 -1.15792e-07 -1.45798e-08 0 -0.0120151 0.0434004 0.0684867 
58 1 0.0005 0.000100319 0.00571837 -3.26099e-05 -0.000139857 -1.68542e-05 0 -1.79737e-07 -3.02318e-08 0 0.0230885 0.0121462 0.0506339 
139 1 0.0005 0.00182725 0.00521862 -7.07934e-06 -0.000132358 -3.97743e-07 0 -1.78244e-07 -3.66824e-08 0 -0.0411357 0.00923144 0.0154691 
109 1 0.00054 0.00215058 0.00645997 -2.06108e-05 -0.000183147 -1.08247e-06 0 -2.36649e-07 -4.51313e-08 0 -0.00261747 0.00385689 0.0308553 
156 1 0.0005 0.00264612 0.00563292 3.54227e-05 -0.000153245 6.54664e-06 0 -1.82897e-07 -3.46729e-08 0 0.0218624 -0.0199189 0.0139793 
175 1 0.00046 0.00314532 0.00641175 -2.96496e-05 -0.00017268 5.08868e-06 0 -1.42502e-07 -2.90081e-08 0 -0.0166832 0.0253456 0.0273872 
114 1 0.00054 0.00359926 0.00562905 1.90715e-05 -0.00015418 2.73343e-06 0 -2.27652e-07 -4.81711e-08 0 -0.00915168 0.0171534 -0.00550766 
185 1 0.00046 0.0044586 0.00591266 1.72497e-05 -0.000153839 3.50135e-06 0 -1.36561e-07 -3.12572e-08 0 -0.0119499 -0.0253472 0.020043 
102 1 0.00056 0.00537197 0.00576121 2.50127e-05 -0.000149414 1.39895e-05 0 -2.39735e-07 -5.27386e-08 0 -0.00814851 0.0202769 0.0253853 
192 1 0.00044 0.00596804 0.00650194 -4.27825e-05 -0.000171734 1.56834e-05 0 -1.19905e-07 -2.53317e-08 0 0.0198823 -0.00435514 -0.00584367 
188 1 0.00044 0.00630652 0.00553453 2.43943e-05 -0.00013737 1.10552e-05 0 -1.12377e-07 -2.23171e-08 0 -0.0736652 -0.00475446 -0.0282853 
149 1 0.0005 0.00681122 0.00637479 -3.07296e-05 -0.000167425 9.18083e-06 0 -1.72529e-07 -3.40861e-08 0 0.00809104 -0.00572927 0.0110503 
131 1 0.00052 0.0072172 0.00549569 -2.4969e-05 -0.000137581 6.80457e-06 0 -1.81217e-07 -3.33561e-08 0 -0.0026516 0.00227031 0.031603 
237 1 0.00052 0.00771851 0.0063348 1.47771e-05 -0.000162334 1.76022e-05 0 -1.92232e-07 -2.94917e-08 0 0.0108679 0.00989139 0.0185175 
159 1 0.00048 0.00819067 0.0055586 -2.62417e-05 -0.000141778 2.19058e-05 0 -1.42219e-07 -1.82348e-08 0 -0.0270964 0.00489183 0.0312642 
125 1 0.00052 0.00865321 0.00633048 -3.20614e-05 -0.000156534 1.92157e-05 0 -1.91753e-07 -1.63031e-08 0 0.0213381 -0.0143487 -0.0174015 
136 1 0.0005 0.00927061 0.00565795 -4.70071e-05 -0.000144474 2.81333e-05 0 -1.64374e-07 -1.20435e-08 0 0.0167205 -0.0317979 0.0430996 
170 1 0.00048 0.0101302 0.00574219 4.476e-05 -0.000152907 8.05756e-05 0 -1.46935e-07 -1.60541e-08 0 -0.0356448 0.0342605 0.0734823 
167 1 0.00048 0.0109451 0.00555089 -5.06646e-06 -0.00016081 2.40561e-05 0 -1.46865e-07 -1.40543e-08 0 -0.0224626 -0.0240221 -0.187875 
123 1 0.00052 0.0114006 0.00651336 -4.22073e-05 -0.000159813 -1.92206e-05 0 -1.9419e-07 -2.63909e-09 0 -0.005424 0.0502132 -0.0702646 
168 1 0.00048 0.0117724 0.00567079 2.60985e-05 -0.000153801 -4.25657e-05 0 -1.49642e-07 -2.71771e-09 0 -0.0209608 0.0211328 0.0328911 
150 1 0.0005 0.0123514 0.00640814 1.83575e-05 -0.000161859 -3.40443e-05 0 -1.72559e-07 3.0274e-09 0 -0.00651904 -0.0497769 0.0130078 
196 1 0.00042 0.0125346 0.00560088 -2.28987e-05 -0.000143863 -2.64258e-05 0 -9.94456e-08 1.14219e-09 0 0.0344054 -0.0315097 0.024946 
157 1 0.0005 0.0132315 0.00609517 2.90979e-05 -0.00015315 -1.63691e-05 0 -1.72421e-07 3.59268e-09 0 -0.00771213 0.0464908 0.0252683 
96 1 0.00058 0.0141702 0.0057723 4.28851e-05 -0.000136619 -2.78002e-06 0 -2.66613e-07 8.98929e-09 0 0.00687177 -0.036613 0.0145349 
115 1 0.00054 0.0151934 0.00589411 -1.46308e-05 -0.000138735 2.40342e-07 0 -2.17951e-07 7.37027e-09 0 -0.026712 0.037083 0.00797805 
143 1 0.0005 0.0156912 0.005021 -7.56683e-06 -0.000115048 1.33717e-05 0 -1.64654e-07 1.05766e-08 0 -0.0104159 0.0262467 0.024486 
141 1 0.0005 0.0160713 0.00623847 -4.83823e-05 -0.000142998 1.52152e-05 0 -1.73107e-07 4.86155e-09 0 -0.00896411 -0.0538745 0.055984 
146 1 0.0005 0.0165291 0.00551876 2.89194e-05 -0.00011771 1.35688e-05 0 -1.69423e-07 1.75296e-09 0 0.0495469 -0.0115446 -0.00602427 
195 1 0.00044 0.017014 0.00631699 3.21564e-05 0.000605049 -0.000460083 0 -1.54266e-07 1.85021e-08 0 29.942 49.4614 -1.75803 
190 1 0.00044 0.0173308 0.00537661 -4.85919e-05 -0.000110829 3.50971e-06 0 -1.15359e-07 -2.40385e-09 0 -0.021441 0.00301167 -0.0143271 
101 1 0.00056 0.018093 0.00628308 -1.12464e-05 -0.000164891 -1.70631e-06 0 -2.64137e-07 -1.58317e-08 0 0.030079 0.155684 0.0879403 
147 1 0.0005 0.018155 0.00535662 3.12852e-05 -0.000109514 -2.96888e-06 0 -1.71775e-07 -1.24766e-08 0 -0.0309375 -0.0074334 0.00141055 
172 1 0.00048 0.0193086 0.00636204 2.46256e-05 -0.000165969 -1.37401e-05 0 -1.93091e-07 -3.30755e-09 0 0.0179672 -0.0424635 0.134921 
144 1 0.0005 0.0190701 0.00549297 -4.44854e-05 -0.000107909 -1.66284e-05 0 -1.71682e-07 -1.44329e-08 0 -0.0264365 0.00516662 -0.0112169 
194 1 0.00044 0.00128944 0.00681575 -2.73404e-05 -0.000202673 -7.56648e-06 0 -1.31149e-07 -2.35078e-08 0 -0.00365062 0.00372969 0.00503065 
107 1 0.00054 0.00116761 0.00795981 -3.38667e-05 -0.000221964 1.98516e-06 0 -2.34475e-07 -3.89364e-08 0 -0.00776773 0.0272217 -6.78175e-05 
193 1 0.00044 0.000626212 0.00726054 -4.2113e-05 -0.000216608 2.32399e-06 0 -1.31566e-07 -1.91115e-08 0 0.0200623 -0.0187029 -0.00112507 
211 1 0.00056 0.000136202 0.00807652 1.49646e-05 -0.000227017 4.14329e-06 0 -2.61194e-07 -3.28949e-08 0 0.0184806 -0.0391706 0.0108679 
137 1 0.0005 0.00192866 0.00742652 7.74856e-06 -0.000210504 -2.23288e-06 0 -1.8825e-07 -3.46001e-08 0 -0.00417968 -0.0102834 0.0137333 
177 1 0.00046 0.0020821 0.0082995 5.5329e-07 -0.000227185 1.2752e-07 0 -1.41556e-07 -2.57558e-08 0 0.00247569 -0.0249125 0.0136051 
118 1 0.00054 0.00285894 0.00725671 3.67542e-05 -0.000200317 4.96431e-06 0 -2.34285e-07 -4.77622e-08 0 0.00596433 0.00515361 0.0156273 
273 1 0.00048 0.00295459 0.00820027 1.2865e-05 -0.000221752 7.25698e-06 0 -1.61412e-07 -3.22786e-08 0 -0.00311041 0.0218674 0.0212523 
132 1 0.00052 0.00377194 0.00772328 -4.70278e-05 -0.000205775 8.25791e-06 0 -2.06856e-07 -4.55093e-08 0 -0.0186279 -0.0101689 0.00943588 
127 1 0.00052 0.00402075 0.00673759 -1.13161e-05 -0.000178191 5.9675e-06 0 -2.0455e-07 -4.59785e-08 0 0.0280046 -0.00958648 0.00917837 
142 1 0.0005 0.00474632 0.00768285 1.72877e-05 -0.000201266 1.4182e-05 0 -1.83427e-07 -4.10055e-08 0 -0.00857228 0.00849138 0.017938 
97 1 0.00058 0.00507641 0.00677445 -4.33679e-05 -0.000178298 1.39573e-05 0 -2.8059e-07 -6.2631e-08 0 0.00110547 0.00389654 0.0185905 
129 1 0.00052 0.00571215 0.00765934 7.98975e-06 -0.000196959 2.05719e-05 0 -2.05183e-07 -4.61644e-08 0 0.00152972 -0.00568961 0.00700312 
145 1 0.0005 0.00648725 0.00722424 -4.89198e-05 -0.000184035 1.32843e-05 0 -1.79794e-07 -3.68908e-08 0 -0.0108778 0.00700194 0.00517299 
117 1 0.00054 0.00706666 0.00808589 -1.8846e-05 -0.000221509 1.36057e-05 0 -2.20214e-07 -3.95429e-08 0 0.0127449 -0.0110949 0.0289379 
158 1 0.00048 0.00738427 0.00719498 -2.80691e-05 -0.00018825 1.42364e-05 0 -1.55558e-07 -2.50858e-08 0 -0.0106102 -0.00197043 0.0183551 
303 1 0.00042 0.00794827 0.00787449 -4.34141e-05 -0.000215668 2.36588e-05 0 -1.0349e-07 -1.52762e-08 0 0.0130139 0.0100889 0.0171568 
184 1 0.00046 0.0082641 0.00712144 2.59556e-05 -0.000183456 2.67076e-05 0 -1.35964e-07 -1.73643e-08 0 -0.0116202 -0.00246502 0.0447703 
111 1 0.00054 0.0088696 0.0078442 -3.81694e-05 -0.000225037 4.30337e-05 0 -2.14828e-07 -2.93242e-08 0 -0.00400374 -0.0100112 0.0392429 
210 1 0.00056 0.00943724 0.00691975 -2.37608e-06 -0.000182801 4.72995e-05 0 -2.39225e-07 -2.34364e-08 0 0.0042586 0.0369576 0.129176 
233 1 0.00052 0.00986119 0.00782488 -1.57412e-05 -0.000249267 4.13052e-05 0 -1.84914e-07 -1.78985e-08 0 0.0228312 0.00855492 -0.0297882 
100 1 0.00056 0.010425 0.00667149 -1.47472e-05 -0.000152099 8.40354e-05 0 -2.45394e-07 -3.17551e-08 0 0.0265057 -0.0480501 -0.0752968 
213 1 0.00056 0.01077 0.00823694 4.979e-05 -0.000248377 -2.42572e-05 0 -2.36817e-07 -1.32791e-09 0 -0.0209582 -0.00711928 -0.0598227 
199 1 0.00042 0.011037 0.00735878 2.22644e-05 -6.78566e-06 1.83754e-05 0 -1.21208e-07 -4.68239e-09 0 -0.0608624 0.0501893 -0.302591 
120 1 0.00052 0.011748 0.00821371 -4.55597e-05 -0.000233925 -4.41684e-05 0 -1.94575e-07 7.55941e-09 0 -0.0238362 0.00566228 0.0298184 
112 1 0.00054 0.0120601 0.00730385 -4.5975e-05 -0.000185143 -3.64223e-05 0 -2.25845e-07 5.49805e-09 0 0.028593 -0.0200556 0.0556853 
161 1 0.00048 0.0128803 0.00785437 4.23607e-05 -0.000211669 -2.20608e-05 0 -1.55477e-07 3.86028e-09 0 -0.0111565 0.0305172 0.016583 
186 1 0.00046 0.0130421 0.0069949 4.20701e-05 -0.000182163 -2.06662e-05 0 -1.3654e-07 3.9078e-09 0 -0.00604134 0.0472361 0.0377272 
104 1 0.00056 0.0138735 0.00781752 -5.04024e-06 -0.000207962 -1.16741e-05 0 -2.47507e-07 7.82822e-09 0 -0.00738836 -0.0231307 0.0281772 
148 1 0.0005 0.0139256 0.00680077 1.64328e-05 -0.00017982 -1.34878e-05 0 -1.75312e-07 4.1783e-09 0 0.00900669 -0.04711 -0.00303937 
154 1 0.0005 0.0148771 0.00792289 -1.6913e-05 -0.000212781 -1.63529e-06 0 -1.77278e-07 4.31518e-09 0 -0.00734961 0.0227813 0.0153134 
98 1 0.00058 0.014929 0.00691278 -4.21217e-05 -0.000179422 -5.4025e-06 0 -2.70741e-07 8.55545e-09 0 0.00334943 0.0442126 0.0364773 
128 1 0.00052 0.0158461 0.00811069 -3.94419e-05 -0.000218942 8.00771e-06 0 -2.00112e-07 5.29535e-09 0 -0.0200653 -0.0249231 0.025043 
121 1 0.00052 0.0159377 0.00713235 -1.21974e-05 -0.000192326 1.14236e-05 0 -1.96836e-07 5.26138e-09 0 0.0255458 -0.0464876 0.0290861 
124 1 0.00052 0.0167072 0.00770089 -3.70828e-05 -0.000209572 8.65338e-06 0 -2.0325e-07 7.6053e-09 0 -0.026479 0.0495814 -0.0170161 
119 1 0.00054 0.0175122 0.00715145 -3.33274e-05 -0.000211531 -6.54229e-06 0 -2.374e-07 -3.32802e-09 0 -0.232306 0.125438 -0.00543281 
165 1 0.00048 0.0181808 0.0080556 -3.83096e-05 -0.000230199 9.85705e-06 0 -1.5859e-07 -6.71001e-09 0 0.0239591 0.122263 0.00345692 
113 1 0.00054 0.0185292 0.00717437 -2.02095e-05 -0.000217072 1.1387e-05 0 -2.408e-07 -1.50623e-08 0 -0.0203159 -0.120044 0.0201861 
173 1 0.00048 0.0192016 0.00778161 -4.84051e-05 -0.000223917 7.8775e-06 0 -1.68147e-07 -1.07001e-08 0 -0.0336777 0.0613042 -0.000818189 
140 1 0.0005 0.0197813 0.0071301 -3.46879e-05 -0.000219304 4.00471e-06 0 -1.97004e-07 -1.84765e-08 0 -0.0339847 0.0139686 -0.00580343 
215 1 0.00054 0.00162654 0.00915064 2.66777e-05 -0.000245629 3.47709e-06 0 -2.19186e-07 -3.74402e-08 0 0.0147356 -0.0148895 0.00219311 
301 1 0.00042 0.000829469 0.00875869 -3.96098e-06 -0.000239204 5.3455e-06 0 -1.04599e-07 -1.57189e-08 0 -0.0172395 0.0244162 0.016044 
248 1 0.0005 0.000760479 0.0096292 -1.72888e-05 -0.000253512 6.7354e-06 0 -1.68468e-07 -2.48841e-08 0 0.00957123 0.00804779 -0.00119741 
229 1 0.00052 0.00234768 0.0099767 2.41907e-05 -0.00026426 4.62625e-06 0 -1.85883e-07 -3.17876e-08 0 0.000991883 0.0135708 0.00782524 
236 1 0.00052 0.00260899 0.00906536 4.87165e-05 -0.000242817 5.08049e-06 0 -1.9727e-07 -3.73827e-08 0 -0.00804139 0.0100867 0.0166624 
291 1 0.00046 0.00325827 0.00972712 7.50784e-06 -0.000257417 1.2104e-05 0 -1.31664e-07 -2.72585e-08 0 -0.00226258 -0.0174546 0.0265325 
286 1 0.00046 0.00350498 0.00889139 -7.08428e-06 -0.000235162 1.03069e-05 0 -1.38355e-07 -2.83667e-08 0 0.0108509 -0.00874531 0.00312406 
234 1 0.00052 0.00421982 0.00954447 6.12283e-06 -0.000252139 1.36757e-05 0 -1.92694e-07 -4.30485e-08 0 -0.00879615 0.00563751 0.0317753 
201 1 0.00058 0.00438393 0.00858049 1.74262e-06 -0.00022391 1.26413e-05 0 -2.81564e-07 -6.30353e-08 0 0.0071453 -0.00159987 0.0161825 
265 1 0.00048 0.00519537 0.00943726 -2.81666e-05 -0.000249483 2.32207e-05 0 -1.52152e-07 -3.75033e-08 0 0.000724578 -0.00516574 0.0157359 
134 1 0.00052 0.00537962 0.00853061 -1.04316e-05 -0.000222285 2.31144e-05 0 -2.01909e-07 -4.77212e-08 0 -0.000469723 0.00296324 0.0247298 
247 1 0.0005 0.00614226 0.00937633 9.49774e-06 -0.000247892 2.53199e-05 0 -1.72148e-07 -3.98401e-08 0 -0.013462 0.00496559 0.014129 
198 1 0.00042 0.00626018 0.00848851 -4.45245e-05 -0.000229929 1.91602e-05 0 -1.04228e-07 -2.21976e-08 0 0.0176095 -0.00496427 -0.0227038 
264 1 0.00048 0.00697289 0.00902617 3.54547e-06 -0.00024439 2.22308e-05 0 -1.52848e-07 -3.05977e-08 0 -0.0135174 0.00474111 0.00591854 
232 1 0.00052 0.00743588 0.00986879 -2.7703e-05 -0.000263463 3.27857e-05 0 -1.87712e-07 -4.17435e-08 0 0.0144321 0.00172314 0.0122407 
176 1 0.00046 0.00781711 0.0087133 -4.92713e-05 -0.000242315 2.59266e-05 0 -1.33921e-07 -2.27022e-08 0 -0.0173552 0.00806884 0.0228125 
274 1 0.00048 0.00823215 0.00951066 1.26179e-05 -0.00025982 2.97015e-05 0 -1.47859e-07 -2.50833e-08 0 0.0122636 -0.0185897 0.000789042 
244 1 0.0005 0.00873702 0.00878807 4.93873e-05 -0.000250759 3.24875e-05 0 -1.68129e-07 -2.2404e-08 0 0.00803674 -0.0101304 0.00738304 
228 1 0.00052 0.00913193 0.00970236 -4.18982e-05 -0.000262921 2.33101e-05 0 -1.87357e-07 -1.95561e-08 0 -0.00323948 0.0235101 0.0122249 
203 1 0.00058 0.00974756 0.00885912 -9.33208e-06 -0.000247002 2.48394e-05 0 -2.64621e-07 -2.34212e-08 0 -0.0217143 0.00696733 -0.010196 
225 1 0.00054 0.0106995 0.00929048 -3.72943e-05 -0.000237286 -1.32293e-05 0 -2.15731e-07 -3.78631e-09 0 0.0192775 -0.00660508 -0.0193183 
284 1 0.00046 0.0114061 0.00989529 1.32074e-05 -0.000255058 -2.61371e-05 0 -1.3123e-07 5.33248e-09 0 -0.0265806 -0.00362896 0.0150384 
281 1 0.00046 0.0116435 0.00908241 3.24679e-05 -0.000246894 -3.33255e-05 0 -1.30795e-07 5.72438e-09 0 0.0241877 0.00359122 -0.00344666 
209 1 0.00056 0.0123301 0.00976251 -1.82378e-05 -0.000256178 -2.67147e-05 0 -2.35753e-07 1.36191e-08 0 -0.00513496 0.00858095 0.00970398 