ITEM: TIMESTEP
400800000
ITEM: NUMBER OF ATOMS
400
ITEM: BOX BOUNDS pp ff ff
0 0.02
0 0.04
-0.00065 0.00065
ITEM: ATOMS id type radius x y z vx vy vz fx fy fz omegax omegay omegaz 
74 1 0.00046 0.0013268 0.000444 3.36586e-05 -2.68127e-05 -6.41967e-06 0 -8.57541e-09 -1.56964e-09 0 -0.00239003 -0.0118176 0.0355969 
35 1 0.00052 0.000912354 0.00128523 -1.66342e-05 -3.77122e-05 1.06674e-05 0 -1.7099e-08 7.05482e-09 0 -0.0111162 0.0314166 -0.0443115 
7 1 0.00056 0.000242781 0.000443344 -3.64628e-05 3.61898e-06 -1.26759e-06 0 4.69903e-09 -2.15077e-09 0 0.000557836 0.00292881 -0.00760699 
43 1 0.0005 0.00183504 0.00127859 5.09221e-06 -3.67429e-05 -1.4789e-05 0 -1.41981e-08 -5.00617e-09 0 0.0140734 -0.0319665 0.00870618 
30 1 0.00052 0.0022684 0.000435789 -1.24497e-05 -1.69746e-05 -2.9592e-06 0 -7.22876e-09 -7.71687e-10 0 0.000337793 0.0122864 0.0159923 
67 1 0.00048 0.00274124 0.00128787 4.63423e-05 -3.6527e-05 -2.61387e-06 0 -1.18571e-08 3.93725e-11 0 0.0168096 0.0286272 0.0277649 
17 1 0.00054 0.00324731 0.000515734 4.67087e-05 -1.65518e-05 1.78496e-06 0 -7.66539e-09 1.22045e-09 0 -0.00772041 -0.0180158 0.009656 
86 1 0.00044 0.00374522 0.0012914 -1.5404e-05 -3.63087e-05 6.83923e-06 0 -9.52023e-09 2.96179e-09 0 -0.00825926 -0.00242182 0.0191923 
84 1 0.00044 0.0046064 0.00119546 -2.0603e-05 -2.93043e-05 2.39054e-06 0 -7.64336e-09 1.17484e-09 0 0.0215718 -0.00119005 0.0182964 
54 1 0.0005 0.00417349 0.000417288 3.04549e-05 -1.18249e-05 8.54496e-07 0 -4.69474e-09 7.78954e-10 0 -0.00237849 0.0209567 0.0069643 
46 1 0.0005 0.00511692 0.000469682 4.04467e-05 -1.44159e-05 2.06887e-06 0 -5.28718e-09 8.92784e-10 0 -0.000570024 -0.0191438 0.0106806 
15 1 0.00054 0.00567057 0.00130815 -2.65834e-05 -3.32788e-05 3.16253e-06 0 -1.62363e-08 3.34937e-10 0 -0.00639386 0.0182676 0.00527406 
72 1 0.00048 0.00664263 0.0012891 -2.02466e-06 -3.85565e-05 7.88311e-06 0 -1.30539e-08 2.81487e-10 0 0.0162535 -0.0228609 0.0405037 
78 1 0.00046 0.00602248 0.000418612 -1.20537e-05 -1.23022e-05 3.85568e-06 0 -3.72079e-09 4.29768e-10 0 -0.00309637 0.0166206 0.0148675 
52 1 0.0005 0.00693196 0.000444924 3.91278e-05 -8.00762e-06 7.35247e-06 0 -3.501e-09 1.57496e-09 0 -0.000877472 -0.0118678 0.0102227 
8 1 0.00056 0.00824497 0.00117602 -1.82355e-06 -3.36774e-05 4.27031e-06 0 -1.63868e-08 -5.28178e-09 0 0.00213739 0.0099938 0.084111 
92 1 0.00042 0.00779488 0.000364615 3.24564e-05 3.67281e-07 -2.8396e-06 0 7.71778e-11 -1.7126e-09 0 0.0033139 0.0109473 -0.021564 
60 1 0.00048 0.00876686 0.000397946 -3.28708e-05 1.38848e-06 1.0339e-05 0 6.25359e-10 1.19323e-09 0 0.000761758 -0.0211395 -0.0153951 
32 1 0.00052 0.00930452 0.00138562 3.24568e-05 -5.18171e-05 -9.01435e-06 0 -2.13448e-08 -1.15882e-08 0 0.0270685 -0.0684287 0.07895 
20 1 0.00054 0.00975787 0.000490903 -2.76781e-05 -8.82613e-06 6.61711e-07 0 -3.30304e-09 -3.70676e-09 0 -0.00256775 0.0198881 0.00756777 
28 1 0.00052 0.0103879 0.00131206 -4.92787e-05 -4.09361e-05 -5.90195e-06 0 -1.60401e-08 -8.77035e-09 0 0.0194249 -0.00424225 0.0375629 
34 1 0.00052 0.0113798 0.00139185 -4.32784e-06 -4.39737e-05 1.6367e-06 0 -1.81902e-08 -4.56328e-09 0 -0.00615531 0.00445094 0.0179294 
59 1 0.00048 0.0107657 0.000443925 -3.96086e-06 -1.25755e-05 -1.66707e-06 0 -3.4615e-09 -2.63904e-09 0 -0.00304618 -0.0252977 0.0141287 
9 1 0.00056 0.0117807 0.000485337 -1.32742e-05 -1.78973e-05 2.32696e-06 0 -9.33937e-09 -2.21244e-09 0 -0.0026996 0.0199114 0.0208727 
19 1 0.00054 0.0124075 0.00132904 1.95463e-05 -3.67637e-05 8.97324e-06 0 -1.8641e-08 4.69324e-11 0 0.018817 -0.0035009 0.0138347 
68 1 0.00048 0.012782 0.000442386 1.3181e-05 -1.76644e-05 4.36504e-06 0 -6.70244e-09 -1.77364e-10 0 -0.00580159 -0.0213866 0.00895555 
12 1 0.00056 0.0134351 0.00122582 3.75182e-05 -3.15337e-05 3.8284e-06 0 -2.05231e-08 -4.58419e-10 0 0.000859046 0.00337752 -0.00153628 
94 1 0.00042 0.0136145 0.000329612 1.89547e-05 -1.59645e-05 4.41898e-06 0 -4.60582e-09 4.09292e-10 0 -0.00339134 0.0257304 0.0250356 
48 1 0.0005 0.0143541 0.00161922 1.99029e-05 -4.8217e-05 9.1867e-06 0 -2.27047e-08 1.58974e-09 0 -0.0187349 -0.0114899 0.0559747 
33 1 0.00052 0.0143656 0.000726941 -4.71808e-05 -2.20552e-05 4.76881e-06 0 -1.36361e-08 -3.1359e-10 0 0.0180494 -0.012855 -0.00723665 
83 1 0.00046 0.0156484 0.00128525 1.72248e-05 -3.92883e-05 3.58771e-06 0 -1.95529e-08 -1.10091e-09 0 -0.0074717 -0.0020181 0.0265249 
29 1 0.00052 0.0152283 0.000426629 3.7231e-06 -1.56494e-05 3.11867e-06 0 -1.09453e-08 -5.18065e-11 0 0.00222151 0.00500249 0.0219363 
91 1 0.00044 0.0165511 0.00131657 3.54547e-05 -5.0517e-05 -1.29908e-05 0 -1.18901e-08 -6.50937e-09 0 -0.00443265 0.00589181 0.101649 
53 1 0.0005 0.0161585 0.000503464 -4.85386e-05 -1.63786e-05 -6.03436e-07 0 -1.01272e-08 7.55465e-10 0 0.0080104 -0.00395819 -0.0316989 
65 1 0.00048 0.0177966 0.00133122 -3.92382e-05 -5.1765e-05 -3.4848e-06 0 -2.16204e-08 -4.22889e-09 0 0.00570858 -0.0103107 0.0941645 
4 1 0.00058 0.0171616 0.000538643 -3.8784e-05 -1.0286e-05 -7.47943e-06 0 -8.88256e-09 -9.34148e-09 0 -0.00359964 0.00280484 0.00330881 
5 1 0.00056 0.0182414 0.000486018 3.096e-05 -6.43103e-06 6.07099e-07 0 -4.96016e-09 -1.66308e-09 0 0.000639948 -0.000458006 0.00436197 
49 1 0.0005 0.0199987 0.00131744 4.93031e-05 -4.83816e-05 -1.79937e-05 0 -1.94723e-08 -9.4555e-09 0 0.00672116 -0.0338479 0.133345 
40 1 0.0005 0.0189205 0.00128032 6.72355e-06 -5.24102e-05 -1.10103e-06 0 -2.35553e-08 -2.75126e-09 0 -0.00154513 0.00180933 0.106722 
42 1 0.0005 0.0192498 0.000430473 -3.72737e-05 -1.36144e-06 5.88153e-06 0 -5.83374e-10 2.1196e-09 0 0.000256332 -0.00180166 0.0014478 
18 1 0.00054 0.000909568 0.00230611 5.14548e-06 -8.37484e-05 1.19991e-05 0 -4.61999e-08 7.88726e-09 0 0.00928507 0.0163388 0.107007 
50 1 0.0005 0.000385383 0.00315909 -4.9345e-05 -0.000118844 -2.10095e-05 0 -5.07942e-08 -7.88702e-09 0 -0.019216 -0.000451877 -0.0156338 
182 1 0.00046 0.00206917 0.00294763 -3.17454e-05 -0.000103803 -1.78087e-05 0 -3.14669e-08 -6.53567e-09 0 0.0330543 0.0484462 0.0366987 
24 1 0.00052 0.00232451 0.00212011 -1.41959e-06 -6.6125e-05 -1.31824e-05 0 -2.80062e-08 -5.08992e-09 0 -0.0366464 0.00345058 0.0368524 
189 1 0.00044 0.00292639 0.00285083 3.50109e-05 -9.35106e-05 -9.43161e-06 0 -2.4061e-08 -1.8594e-09 0 0.0146087 -0.0567176 0.00928696 
66 1 0.00048 0.00325718 0.00201925 -3.46654e-05 -6.1526e-05 2.71759e-06 0 -1.97062e-08 2.33308e-09 0 0.00365414 0.00105787 0.015025 
22 1 0.00054 0.00386727 0.00297746 -3.02218e-05 -9.77019e-05 2.82808e-06 0 -4.58926e-08 4.49339e-09 0 -0.0201584 0.0464051 0.0621667 
70 1 0.00048 0.00412935 0.00209039 3.70504e-05 -5.80294e-05 6.58288e-06 0 -1.83523e-08 4.19219e-09 0 0.00538227 -0.000735263 0.000418546 
164 1 0.00048 0.00498473 0.00300239 3.07542e-05 -0.000102855 -1.52905e-05 0 -2.7569e-08 -3.65111e-09 0 0.0367396 -0.149642 0.0928976 
69 1 0.00048 0.0049767 0.00196045 -2.23732e-05 -5.51511e-05 5.30223e-06 0 -1.72604e-08 1.92058e-09 0 -0.0243355 0.00594007 0.0238324 
89 1 0.00044 0.00564576 0.00243812 -2.11247e-06 -7.29197e-05 4.60199e-06 0 -1.67356e-08 -2.57974e-10 0 0.103762 0.0402552 -0.0169271 
44 1 0.0005 0.00623716 0.00307358 -3.67063e-05 -9.57591e-05 5.3867e-06 0 -3.09881e-08 -2.80234e-09 0 -0.0292499 0.0401952 0.0408989 
80 1 0.00046 0.00642432 0.00213323 3.11799e-05 -7.50251e-05 3.35018e-06 0 -1.90891e-08 -5.45796e-10 0 0.00669147 -0.0789012 0.0312355 
93 1 0.00042 0.00699092 0.00270974 -2.75116e-05 -8.54704e-05 1.11402e-05 0 -1.70064e-08 1.76262e-09 0 -0.0771718 0.0108147 -0.0105624 
64 1 0.00048 0.00731811 0.00191049 4.80419e-05 -7.14437e-05 1.67926e-05 0 -2.48893e-08 3.78038e-09 0 0.0301711 0.0708057 0.0130946 
90 1 0.00044 0.00772754 0.00291294 1.77683e-05 -9.30261e-05 9.01227e-06 0 -2.04415e-08 -3.85356e-09 0 0.0626392 -0.0120247 0.0259229 
1 1 0.00058 0.00828707 0.00219869 -3.97226e-05 -8.15708e-05 1.25138e-05 0 -4.6385e-08 -7.43496e-09 0 -0.000737537 -0.0526195 0.000763077 
31 1 0.00052 0.00876538 0.00311885 4.55657e-05 -8.99607e-05 1.42744e-05 0 -3.61575e-08 -8.0774e-09 0 -0.0176594 0.0305572 0.00118293 
82 1 0.00046 0.0092481 0.00230708 1.80717e-05 -8.53245e-05 -1.4679e-08 0 -2.39356e-08 -7.69985e-09 0 -0.0315765 0.0649905 -0.0172769 
14 1 0.00054 0.00980505 0.00312826 -3.93388e-05 -0.000100086 3.67002e-06 0 -4.13307e-08 -1.40728e-08 0 0.0410325 -0.0254227 0.015021 
39 1 0.0005 0.0101366 0.00222382 2.40231e-05 -8.00997e-05 -6.47102e-06 0 -2.80753e-08 -1.16632e-08 0 -0.00718978 -0.0612608 0.0119932 
162 1 0.00048 0.010739 0.00309837 2.716e-05 -9.75507e-05 -1.647e-06 0 -3.05871e-08 -9.39354e-09 0 -0.020121 0.0246235 -0.00510343 
55 1 0.0005 0.0110969 0.00228204 -4.78087e-05 -8.10087e-05 -5.75094e-06 0 -2.77303e-08 -8.43639e-09 0 -0.0170841 0.065315 0.0275164 
27 1 0.00052 0.0116601 0.00309669 -4.25165e-05 -0.000102654 -3.54011e-06 0 -4.19943e-08 -7.60488e-09 0 0.043356 -0.0195024 0.000976634 
45 1 0.0005 0.0120597 0.00222633 -4.01526e-05 -7.31898e-05 7.39978e-06 0 -2.64748e-08 -2.65798e-09 0 0.00599281 -0.0748995 0.0434299 
26 1 0.00052 0.0126276 0.0031263 2.94528e-05 -0.000110237 -1.76252e-05 0 -4.69354e-08 -4.72875e-09 0 0.00891675 0.0182322 -0.00316453 
10 1 0.00056 0.0131078 0.00223008 4.21294e-05 -7.3755e-05 -6.91101e-06 0 -4.11307e-08 -2.65168e-09 0 0.00930658 -0.0529457 0.0708781 
36 1 0.00052 0.0136554 0.0031445 2.4953e-06 -0.000114605 -6.76742e-06 0 -5.00718e-08 -2.43522e-09 0 -0.0209119 0.00323962 0.0119396 
87 1 0.00044 0.0141682 0.00242041 2.35941e-05 -9.24225e-05 -2.98085e-07 0 -2.75867e-08 -1.25004e-09 0 0.0219926 0.00251697 0.0455133 
41 1 0.0005 0.0146323 0.00314163 -2.89305e-05 -0.000116166 6.2714e-06 0 -4.55847e-08 -1.85074e-09 0 -0.0214636 -0.006495 0.0162152 
57 1 0.0005 0.0150821 0.00224325 3.21045e-05 -8.01017e-05 1.74847e-05 0 -3.68454e-08 3.09727e-09 0 0.0005966 -0.00606768 -0.00646581 
21 1 0.00054 0.015617 0.00308724 2.08022e-05 -0.000105184 3.05179e-05 0 -5.4453e-08 4.65917e-09 0 -0.00165302 0.00715276 0.0450198 
76 1 0.00046 0.0160062 0.00209108 1.69816e-05 -8.24725e-05 2.71312e-05 0 -3.01923e-08 2.85088e-09 0 0.0107031 0.00499355 0.0666415 
71 1 0.00048 0.0165043 0.00284308 -1.31875e-05 -9.92364e-05 2.66193e-05 0 -3.83178e-08 1.25181e-09 0 -0.0153398 -0.00499263 -0.0454746 
81 1 0.00046 0.0169289 0.00207814 -2.13541e-05 -0.000105718 7.3537e-06 0 -3.45032e-08 -1.27985e-09 0 0.0123163 0.0143477 0.00750697 
63 1 0.00048 0.0173586 0.00302245 -2.48084e-05 -0.000101512 -2.72081e-06 0 -3.94035e-08 -5.58178e-09 0 0.0127162 0.00386885 -0.0168627 
16 1 0.00054 0.0178649 0.00224465 7.17441e-06 -0.000105565 -1.81374e-06 0 -5.68931e-08 -6.78034e-09 0 -0.00608029 -0.0112951 0.00398372 
51 1 0.0005 0.0184444 0.00302944 -3.11061e-05 -0.000110897 -3.84235e-06 0 -4.71935e-08 -7.2492e-09 0 -0.00224991 0.000339077 -0.00139001 
37 1 0.00052 0.0188627 0.00220948 -6.697e-06 -0.000107561 -7.90568e-06 0 -5.20578e-08 -8.27948e-09 0 -0.00012274 0.0102049 -0.0038526 
6 1 0.00056 0.0194345 0.00303954 1.88296e-05 -0.000111742 -1.35751e-05 0 -6.76019e-08 -1.23682e-08 0 0.00449361 -0.00112881 0.00737954 
13 1 0.00054 0.0198532 0.00217871 2.40593e-05 -0.000104813 -2.26443e-05 0 -5.78837e-08 -1.57861e-08 0 0.000877432 -0.00964739 -0.013124 
11 1 0.00056 0.0013202 0.00346671 4.11056e-07 -0.000119396 -2.22996e-05 0 -6.71727e-08 -1.58331e-08 0 -0.0543736 -0.0231365 0.00360934 
179 1 0.00046 0.00154473 0.00438062 -3.43082e-05 -0.000148442 -1.67994e-05 0 -3.80146e-08 -7.06018e-09 0 0.057694 -0.020424 0.0539082 
160 1 0.00048 0.000521329 0.00405565 4.11872e-05 -0.000137703 -3.12401e-05 0 -4.2343e-08 -8.75118e-09 0 0.0284676 0.0519288 0.0590356 
62 1 0.00048 0.00225577 0.00383352 4.14547e-05 -0.000125504 -1.1787e-05 0 -4.30217e-08 -7.11789e-09 0 -0.0292037 -0.00333285 0.00202783 
171 1 0.00048 0.00263025 0.00468333 2.79416e-05 -0.000164546 3.5335e-06 0 -4.32855e-08 -5.65057e-09 0 -0.0441306 -0.196038 0.0864707 
178 1 0.00046 0.0031394 0.00368831 -1.57031e-06 -0.00012359 -5.57093e-06 0 -3.60351e-08 -6.14358e-10 0 -0.0256471 0.0135082 0.0315383 
163 1 0.00048 0.00360252 0.00470051 5.32063e-06 -0.000169528 -1.30679e-05 0 -4.16121e-08 2.98896e-09 0 0.00115337 -0.0493447 0.0637825 
155 1 0.0005 0.00402191 0.00391637 -2.6529e-06 -0.000137404 2.55959e-06 0 -4.85665e-08 4.02505e-09 0 0.0291593 -0.0121698 0.0029415 
103 1 0.00056 0.00458861 0.00494701 -3.58607e-05 -0.000174534 -2.26049e-06 0 -6.69624e-08 -1.37236e-09 0 0.00733525 0.0440498 0.0123921 
108 1 0.00054 0.00499861 0.0039723 -2.13321e-05 -0.000148297 -4.93527e-06 0 -6.10738e-08 -2.27344e-09 0 -0.0334646 0.0118425 0.00624503 
106 1 0.00056 0.00566454 0.00479156 -4.97251e-05 -0.000167096 2.65158e-06 0 -6.37473e-08 -7.11983e-09 0 0.00504763 -0.0473914 0.0219771 
187 1 0.00046 0.00597407 0.00390424 -2.41619e-05 -0.000138657 3.63311e-06 0 -3.54284e-08 -4.69758e-09 0 0.0175077 -0.00737607 0.0368682 
116 1 0.00054 0.00667804 0.00459881 -2.57589e-05 -0.000154675 3.49255e-06 0 -5.46412e-08 -9.31396e-09 0 0.0256473 0.0433428 0.000337137 
138 1 0.0005 0.00702237 0.00365615 -4.22335e-05 -0.000124415 9.37381e-06 0 -4.03438e-08 -4.65841e-09 0 -0.0160533 -0.0875661 0.0181528 
95 1 0.00058 0.0077473 0.00462595 4.30556e-05 -0.000150631 9.15279e-06 0 -6.71016e-08 -1.39519e-08 0 0.0126268 -0.034822 0.0338527 
61 1 0.00048 0.00795968 0.00368252 4.42331e-05 -0.000113094 1.11836e-05 0 -3.33687e-08 -6.02426e-09 0 -0.0264298 0.100623 0.00831292 
153 1 0.0005 0.00877632 0.00405978 -4.39636e-05 -0.000113479 2.45502e-05 0 -3.96798e-08 -6.80664e-09 0 0.0204414 -0.0989378 0.0480811 
38 1 0.0005 0.00979994 0.00487008 4.93343e-05 -0.000129819 4.78904e-05 0 -4.47794e-08 -9.62452e-09 0 0.0677402 -0.11134 0.113174 
75 1 0.00046 0.00960793 0.00400072 4.05756e-05 -9.79828e-05 2.3067e-05 0 -3.11341e-08 -8.47803e-09 0 -0.0742715 0.114807 -0.0476077 
169 1 0.00048 0.00870966 0.0049069 -1.72291e-05 -0.00016106 2.66987e-05 0 -3.7714e-08 -5.69406e-09 0 -0.0183777 0.0441731 0.0305698 
191 1 0.00044 0.0104228 0.00387975 -3.72271e-05 -0.000101134 -3.22731e-06 0 -2.73053e-08 -7.00007e-09 0 0.0549576 -0.116681 0.0136164 
166 1 0.00048 0.0107725 0.00466982 4.50596e-05 -0.000197925 1.40835e-05 0 -3.66683e-08 -9.55684e-09 0 -0.0490682 0.103568 0.210948 
88 1 0.00044 0.0112821 0.00394227 1.35023e-05 -0.000108397 2.36477e-05 0 -2.78869e-08 -8.3145e-09 0 -0.108748 0.119847 -0.00769592 
152 1 0.0005 0.0119372 0.00475753 3.81834e-05 -0.000157062 -4.16168e-05 0 -4.51809e-08 -2.28588e-09 0 0.0371907 -0.0126898 0.0694666 
85 1 0.00044 0.012142 0.00389486 3.14585e-06 -0.00011403 -2.093e-05 0 -2.8387e-08 -1.63559e-09 0 -0.0438333 0.0203159 0.0123401 
151 1 0.0005 0.012907 0.00492986 -2.4127e-05 -0.000167657 -2.01684e-05 0 -4.87439e-08 -1.68027e-09 0 -0.0158988 0.0164216 0.0293223 
99 1 0.00056 0.013132 0.00399588 1.0814e-05 -0.000131546 -1.53606e-05 0 -6.54301e-08 -4.28577e-09 0 0.0102283 -0.000966478 0.0292732 
174 1 0.00046 0.0137671 0.00483812 -4.51984e-05 -0.000163909 -6.89162e-06 0 -3.92631e-08 -2.18164e-09 0 -0.0309715 -0.0109188 0.0222567 
110 1 0.00054 0.0141885 0.00402786 1.00341e-06 -0.000139338 -8.51903e-07 0 -6.07702e-08 -2.32794e-09 0 0.022254 0.007211 0.0206173 
126 1 0.00052 0.0147116 0.00489073 6.87793e-06 -0.00016507 1.32213e-06 0 -5.85439e-08 -2.23446e-09 0 -0.00312856 0.012575 0.0188778 
25 1 0.00052 0.0151572 0.00395787 1.87838e-05 -0.000140683 1.44823e-05 0 -5.60747e-08 -1.20337e-09 0 0.00573854 -0.0107653 0.0237048 
47 1 0.0005 0.0160831 0.00415494 4.33922e-05 -0.00015304 1.04007e-05 0 -5.2572e-08 -4.30394e-09 0 0.00329275 0.00986329 -0.0208202 
79 1 0.00046 0.0167806 0.00468952 2.18197e-05 -0.000155904 -6.34628e-07 0 -4.07892e-08 -5.92e-09 0 -0.00392407 -0.00765705 0.0185279 
56 1 0.0005 0.0170323 0.00386886 -2.12721e-05 -0.000157042 -1.53677e-05 0 -5.23221e-08 -8.83866e-09 0 0.00692847 -0.00852887 -0.0372854 
77 1 0.00046 0.0176644 0.00460902 6.56493e-06 -0.000164565 -7.67584e-06 0 -4.10395e-08 -6.76928e-09 0 0.00477902 0.00320054 -0.011534 
130 1 0.00052 0.0179643 0.00377792 9.36883e-06 -0.000141356 -9.31032e-06 0 -5.63921e-08 -8.98216e-09 0 -0.0045608 0.0067784 0.0546252 
2 1 0.00058 0.0186994 0.00453923 3.03201e-05 -0.000165427 -1.5159e-05 0 -8.17349e-08 -1.38659e-08 0 0.0069706 -0.00139666 -0.0170329 
73 1 0.00046 0.0194107 0.00392593 1.43967e-05 -0.000147643 -1.55637e-05 0 -4.01909e-08 -7.09017e-09 0 -0.0042317 -0.00540315 0.0580267 
23 1 0.00054 0.0197548 0.00479001 -2.66714e-05 -0.000168369 -2.38945e-05 0 -6.49966e-08 -1.18181e-08 0 0.00244802 0.00525041 -0.00566937 
3 1 0.00058 0.000796276 0.00500013 1.15215e-05 -0.000171836 -2.44876e-05 0 -7.86353e-08 -1.49888e-08 0 -0.0122505 -0.00823525 0.00294097 
135 1 0.0005 0.00120148 0.00595104 1.46596e-05 -0.000217441 -2.16617e-05 0 -5.14432e-08 -8.4383e-09 0 0.0278518 0.0554667 0.0765471 
197 1 0.00042 0.000329727 0.00650308 -3.99128e-05 -0.000252921 -3.26691e-06 0 -3.27461e-08 -4.68985e-09 0 0.000910721 0.00690709 0.074531 
58 1 0.0005 8.97422e-05 0.00571691 -3.26099e-05 -0.000193556 -2.66836e-05 0 -5.20016e-08 -9.62433e-09 0 0.00679421 0.0197608 0.0553007 
139 1 0.0005 0.00181712 0.0052181 -7.07934e-06 -0.000184752 -6.74154e-06 0 -4.98253e-08 -8.10126e-09 0 -0.0655361 -0.014154 0.022385 
109 1 0.00054 0.00213757 0.00645938 -2.06108e-05 -0.000239159 -7.82096e-06 0 -6.73248e-08 -6.85612e-09 0 -0.0222181 0.0149426 0.0410269 
156 1 0.0005 0.0026348 0.00563276 3.54227e-05 -0.000206523 -1.97711e-07 0 -5.01564e-08 -4.92007e-09 0 0.0262754 -0.00613177 0.00573668 
175 1 0.00046 0.00313293 0.00641138 -2.96496e-05 -0.000227592 -4.9061e-06 0 -4.13059e-08 -2.07806e-09 0 -0.0136118 0.0190529 0.0348992 
114 1 0.00054 0.00358802 0.00562874 1.90715e-05 -0.000205027 -3.6247e-06 0 -6.13621e-08 2.26517e-09 0 -0.000654637 0.00548117 0.00188199 
185 1 0.00046 0.0044475 0.00591241 1.72497e-05 -0.000202947 -1.79398e-06 0 -3.72545e-08 1.0935e-10 0 -0.0151252 -0.0114527 0.0104017 
102 1 0.00056 0.00536111 0.00576121 2.50127e-05 -0.000198746 2.63159e-06 0 -6.77495e-08 -8.0847e-09 0 0.00584785 0.00882263 0.0266264 
192 1 0.00044 0.00595584 0.00650207 -4.27825e-05 -0.000224502 6.01251e-06 0 -3.56384e-08 -5.47093e-09 0 0.00492188 0.0118184 -0.0046552 
188 1 0.00044 0.00629635 0.00553444 2.43943e-05 -0.000186088 8.42852e-07 0 -3.16959e-08 -5.50376e-09 0 -0.0599202 0.000433178 -0.0273663 
149 1 0.0005 0.00679926 0.00637466 -3.07296e-05 -0.000220473 1.05547e-06 0 -5.18405e-08 -1.14957e-08 0 0.00627904 -0.0162971 0.0125228 
131 1 0.00052 0.00720702 0.00549551 -2.4969e-05 -0.000186721 -4.88184e-07 0 -5.27392e-08 -1.20914e-08 0 0.00497336 -0.00131371 0.0369046 
237 1 0.00052 0.00770679 0.00633528 1.47771e-05 -0.000216131 1.24632e-05 0 -5.71638e-08 -1.22657e-08 0 0.0041202 0.019142 0.0237686 
159 1 0.00048 0.00818022 0.0055594 -2.62417e-05 -0.000192131 1.82972e-05 0 -4.18346e-08 -8.36306e-09 0 -0.0261467 0.00802465 0.0355571 
125 1 0.00052 0.00864181 0.00633121 -3.20614e-05 -0.000209922 1.63417e-05 0 -5.7546e-08 -8.88658e-09 0 0.0138197 -0.0238733 -0.016088 
136 1 0.0005 0.00925992 0.00565922 -4.70071e-05 -0.000196715 2.62955e-05 0 -4.75221e-08 -6.49785e-09 0 0.0307035 -0.0261532 0.044784 
170 1 0.00048 0.0101189 0.00574634 4.476e-05 -0.000207903 8.33361e-05 0 -4.1733e-08 -1.05635e-08 0 -0.106365 0.0203964 0.0767004 
167 1 0.00048 0.0109334 0.00555199 -5.06646e-06 -0.000217211 2.34063e-05 0 -4.13885e-08 -8.21101e-09 0 0.0664863 -0.0127149 -0.201418 
123 1 0.00052 0.0113889 0.00651214 -4.22073e-05 -0.000217051 -2.32234e-05 0 -6.01166e-08 -4.20122e-09 0 0.0153137 0.0494548 -0.0729391 
168 1 0.00048 0.011761 0.00566823 2.60985e-05 -0.000209693 -5.00693e-05 0 -4.34463e-08 -2.07712e-09 0 -0.0410772 0.018172 0.0342229 
150 1 0.0005 0.0123395 0.00640613 1.83575e-05 -0.000219365 -3.95183e-05 0 -5.38347e-08 -4.37742e-10 0 0.00487431 -0.0531251 0.0156688 
196 1 0.00042 0.0125238 0.00559926 -2.28987e-05 -0.000198218 -3.26208e-05 0 -2.90181e-08 -1.34697e-10 0 0.0199523 -0.0246801 0.0313614 
157 1 0.0005 0.0132202 0.00609412 2.90979e-05 -0.000209102 -2.15745e-05 0 -5.24295e-08 2.31057e-09 0 0.00556705 0.0416104 0.0228347 
96 1 0.00058 0.0141598 0.00577198 4.28851e-05 -0.000191974 -8.65664e-06 0 -8.17823e-08 -1.08944e-09 0 0.0117835 -0.0376311 0.0161133 
115 1 0.00054 0.0151828 0.00589397 -1.46308e-05 -0.000194991 -4.78608e-06 0 -6.72871e-08 -5.29442e-09 0 -0.0175873 0.0403391 0.00998585 
143 1 0.0005 0.0156821 0.00502163 -7.56683e-06 -0.000166603 9.54326e-06 0 -5.20245e-08 -3.18519e-09 0 -0.00279924 -0.00907128 0.0275779 
141 1 0.0005 0.0160605 0.00623907 -4.83823e-05 -0.000200436 9.53275e-06 0 -5.39094e-08 -3.66415e-09 0 0.0197076 -0.0423805 0.0539974 
146 1 0.0005 0.0165197 0.00551929 2.89194e-05 -0.00017164 8.46353e-06 0 -5.27357e-08 -5.74664e-09 0 0.00441329 0.0052074 -0.00115333 
195 1 0.00044 0.0169927 0.00632271 3.21564e-05 -0.000217284 1.22438e-07 0 -3.76181e-08 -5.35403e-09 0 0.0504578 0.0810325 0.0820403 
190 1 0.00044 0.0173218 0.00537657 -4.85919e-05 -0.000163432 -1.14846e-06 0 -3.58206e-08 -6.38659e-09 0 -0.00552034 -0.00327094 -0.0137101 
101 1 0.00056 0.0180811 0.00628268 -1.12464e-05 -0.000219202 -7.07625e-06 0 -8.00481e-08 -1.18306e-08 0 0.00975806 -0.0297566 0.0978179 
147 1 0.0005 0.0181461 0.00535614 3.12852e-05 -0.000161617 -8.87975e-06 0 -5.24342e-08 -8.49455e-09 0 -0.00658808 0.000602421 0.0021961 
172 1 0.00048 0.0192966 0.00636087 2.46256e-05 -0.000220731 -2.14502e-05 0 -4.57429e-08 -9.54634e-09 0 0.0157875 0.0273294 0.148453 
144 1 0.0005 0.0190613 0.00549172 -4.44854e-05 -0.000159164 -2.32545e-05 0 -5.19233e-08 -9.95169e-09 0 -0.0080567 -0.00138121 -0.0128589 
194 1 0.00044 0.00127524 0.00681474 -2.73404e-05 -0.000262552 -1.68815e-05 0 -3.75651e-08 -5.03642e-09 0 -0.0196235 0.00361568 0.00372521 
107 1 0.00054 0.00115252 0.00795937 -3.38667e-05 -0.000280785 -5.92499e-06 0 -7.19201e-08 -8.14156e-09 0 -0.00646018 -0.00803521 -0.00180339 
193 1 0.00044 0.000611294 0.00726015 -4.2113e-05 -0.000276777 -5.53694e-06 0 -3.85284e-08 -5.12202e-09 0 0.000754247 0.00331055 -0.00232496 
211 1 0.00056 0.000120906 0.0080763 1.49646e-05 -0.000284822 -2.27325e-06 0 -8.02382e-08 -1.04154e-08 0 -0.000569709 0.0058465 0.00992387 
137 1 0.0005 0.00191409 0.0074258 7.74856e-06 -0.000270457 -1.0909e-05 0 -5.64377e-08 -5.59949e-09 0 0.017817 0.00460269 0.0139251 
177 1 0.00046 0.00206673 0.00829894 5.5329e-07 -0.00028627 -7.86202e-06 0 -4.51345e-08 -3.53947e-09 0 -0.0130952 0.00189481 0.0127647 
118 1 0.00054 0.00284489 0.00725638 3.67542e-05 -0.00026058 -3.52946e-06 0 -7.08082e-08 -3.84328e-09 0 0.00913065 -0.0120041 0.0162011 
273 1 0.00048 0.00293948 0.00820006 1.2865e-05 -0.000281053 -9.1907e-07 0 -5.20564e-08 -3.02627e-09 0 -0.00657989 0.00238289 0.0198126 
132 1 0.00052 0.00375753 0.00772309 -4.70278e-05 -0.000267367 -3.65819e-07 0 -6.62853e-08 -4.80926e-09 0 -0.0163536 0.00603153 0.00523925 
127 1 0.00052 0.00400801 0.00673763 -1.13161e-05 -0.000234657 4.81754e-06 0 -6.00656e-08 7.34328e-10 0 0.0206712 -0.00395984 0.0284382 
142 1 0.0005 0.00473212 0.00768263 1.72877e-05 -0.000263507 -8.94444e-07 0 -5.8334e-08 -8.75636e-09 0 0.00427699 -0.00482938 0.0113324 
97 1 0.00058 0.00506368 0.00677415 -4.33679e-05 -0.000234463 -3.07496e-06 0 -8.40263e-08 -1.32405e-08 0 -0.00444334 -0.0035418 0.0356414 
129 1 0.00052 0.00569824 0.00765946 7.98975e-06 -0.000257895 6.29358e-06 0 -6.45889e-08 -1.1672e-08 0 0.00189529 0.00318571 0.00733356 
145 1 0.0005 0.00647419 0.00722425 -4.89198e-05 -0.000241613 4.18549e-06 0 -5.42155e-08 -1.11496e-08 0 0.000584592 -0.00730648 0.0155108 
117 1 0.00054 0.00705177 0.00808605 -1.8846e-05 -0.000276623 7.44387e-06 0 -7.49036e-08 -1.90218e-08 0 0.00321022 0.00845546 0.0304617 
158 1 0.00048 0.00737107 0.00719523 -2.80691e-05 -0.000244537 8.7251e-06 0 -4.85459e-08 -1.08056e-08 0 -0.0118059 0.0105108 0.0165454 
303 1 0.00042 0.00793368 0.00787527 -4.34141e-05 -0.000271293 1.86349e-05 0 -3.44236e-08 -6.99464e-09 0 0.00560582 -0.0129745 0.0171396 
184 1 0.00046 0.00825117 0.00712242 2.59556e-05 -0.000239116 2.18731e-05 0 -4.34962e-08 -7.94286e-09 0 0.0079051 -0.0149151 0.0486485 
111 1 0.00054 0.00885447 0.00784606 -3.81694e-05 -0.0002819 3.90205e-05 0 -7.16954e-08 -1.44669e-08 0 -0.0106812 0.00941742 0.0395356 
210 1 0.00056 0.00942438 0.006922 -2.37608e-06 -0.000238219 4.53964e-05 0 -7.3611e-08 -1.29197e-08 0 0.00376719 0.0378402 0.131792 
233 1 0.00052 0.00984486 0.00782677 -1.57412e-05 -0.000305566 3.85327e-05 0 -6.37423e-08 -7.59225e-09 0 0.0129271 -0.0108482 -0.0300144 
100 1 0.00056 0.0104137 0.0066757 -1.47472e-05 -0.00020792 8.3405e-05 0 -7.4068e-08 -1.30434e-08 0 0.0776208 -0.0603078 -0.0781646 
213 1 0.00056 0.0107537 0.0082355 4.979e-05 -0.000304015 -2.77787e-05 0 -8.50776e-08 -2.54639e-09 0 -0.00829445 0.0109193 -0.0630677 
199 1 0.00042 0.0110332 0.00735958 2.22644e-05 -6.39232e-05 1.70031e-05 0 -3.51269e-08 -1.65564e-09 0 -0.099731 0.0996841 -0.29552 
120 1 0.00052 0.0117325 0.0082113 -4.55597e-05 -0.000290503 -4.68329e-05 0 -6.90381e-08 -7.4561e-11 0 -0.00811542 -0.012862 0.0305213 
112 1 0.00054 0.012047 0.00730176 -4.5975e-05 -0.000242489 -4.07081e-05 0 -7.28094e-08 -1.48366e-10 0 0.0155271 -0.00769263 0.0543255 
161 1 0.00048 0.0128658 0.00785305 4.23607e-05 -0.000269588 -2.60955e-05 0 -5.31359e-08 1.15701e-09 0 0.00144703 0.0122151 0.0157345 
186 1 0.00046 0.0130291 0.00699361 4.20701e-05 -0.000241451 -2.60537e-05 0 -4.50982e-08 1.27807e-09 0 -0.0170492 0.0487776 0.0339924 
104 1 0.00056 0.0138592 0.00781672 -5.04024e-06 -0.000266973 -1.66047e-05 0 -8.3299e-08 2.68208e-10 0 0.00216535 -0.00670571 0.0272081 
148 1 0.0005 0.0139127 0.00679985 1.64328e-05 -0.000238054 -1.9387e-05 0 -5.84821e-08 -5.82595e-10 0 -0.00145388 -0.0418916 -6.28292e-05 
154 1 0.0005 0.0148626 0.0079226 -1.6913e-05 -0.000271219 -6.7703e-06 0 -5.9012e-08 -2.11533e-09 0 0.00194661 0.0053236 0.0144747 
98 1 0.00058 0.0149162 0.00691231 -4.21217e-05 -0.000237491 -1.08464e-05 0 -9.0419e-08 -5.58923e-09 0 -0.00399804 0.0372041 0.0365181 
128 1 0.00052 0.0158312 0.00811092 -3.94419e-05 -0.00027784 3.27614e-06 0 -6.55719e-08 -3.26857e-09 0 0.00728211 -0.000401967 0.0254016 
121 1 0.00052 0.0159242 0.00713277 -1.21974e-05 -0.000249974 6.53688e-06 0 -6.53125e-08 -3.84141e-09 0 -0.00408535 -0.045919 0.0302475 
124 1 0.00052 0.0166928 0.00770121 -3.70828e-05 -0.000267622 5.03821e-06 0 -6.54489e-08 -5.39409e-09 0 -0.0419821 0.0140904 -0.0137673 
119 1 0.00054 0.0174977 0.00715095 -3.33274e-05 -0.000268139 -9.53369e-06 0 -7.43714e-08 -1.00276e-08 0 0.000494371 0.0159566 -0.0058161 
165 1 0.00048 0.0181654 0.00805584 -3.83096e-05 -0.000288831 5.36889e-06 0 -4.97681e-08 -5.87564e-09 0 0.0140786 0.0897682 0.00277983 
113 1 0.00054 0.0185143 0.00717469 -2.02095e-05 -0.000275181 7.23339e-06 0 -7.36268e-08 -9.94062e-09 0 -0.0354842 -0.0186159 0.0201197 
173 1 0.00048 0.0191864 0.00778173 -4.84051e-05 -0.000282044 3.39589e-06 0 -5.09908e-08 -6.53229e-09 0 0.00910141 -0.00542244 -0.00268582 
140 1 0.0005 0.0197662 0.00712992 -3.46879e-05 -0.000279774 -2.18606e-06 0 -5.69386e-08 -7.96636e-09 0 -0.0016749 -0.00372931 -0.00948764 
215 1 0.00054 0.00161041 0.00915031 2.66777e-05 -0.000302155 -3.72148e-06 0 -7.22524e-08 -5.59329e-09 0 0.00412906 0.00534615 0.000642043 
301 1 0.00042 0.000813615 0.00875847 -3.96098e-06 -0.000296713 -1.90702e-06 0 -3.3585e-08 -3.49556e-09 0 0.0121747 0.00130164 0.0146506 
248 1 0.0005 0.000744041 0.00962906 -1.72888e-05 -0.000308962 -2.02769e-07 0 -5.61621e-08 -5.42195e-09 0 -0.00854917 0.000200458 -0.00179157 
229 1 0.00052 0.00233077 0.00997643 2.41907e-05 -0.000318269 -2.58611e-06 0 -6.42999e-08 -3.56111e-09 0 -0.0038192 0.00582036 0.00627692 
236 1 0.00052 0.00259296 0.00906505 4.87165e-05 -0.000299887 -3.00194e-06 0 -6.56294e-08 -4.18422e-09 0 0.00544648 -0.00709556 0.0141134 
291 1 0.00046 0.00324164 0.00972712 7.50784e-06 -0.000312277 3.486e-06 0 -4.53059e-08 -3.60963e-09 0 -0.010558 -0.00129481 0.0242189 
286 1 0.00046 0.00348929 0.00889125 -7.08428e-06 -0.00029263 9.75416e-07 0 -4.58794e-08 -4.28848e-09 0 0.0105176 0.00643637 0.000783257 
234 1 0.00052 0.0042034 0.00954442 6.12283e-06 -0.000307574 3.19189e-06 0 -6.68006e-08 -9.45387e-09 0 -0.00501828 -0.00271982 0.0291746 
201 1 0.00058 0.00436876 0.00858035 1.74262e-06 -0.000282056 1.26553e-06 0 -9.22666e-08 -1.28566e-08 0 0.00640913 -0.0124085 0.013546 
265 1 0.00048 0.00517905 0.00943762 -2.81666e-05 -0.000305291 1.18139e-05 0 -5.38791e-08 -1.0374e-08 0 0.00214391 0.00468001 0.0144054 
134 1 0.00052 0.00536455 0.00853092 -1.04316e-05 -0.000280385 1.04437e-05 0 -6.72416e-08 -1.21363e-08 0 -0.00708201 0.014156 0.0222472 
247 1 0.0005 0.00612604 0.00937688 9.49774e-06 -0.00030313 1.60235e-05 0 -6.19016e-08 -1.55828e-08 0 0.00141658 -0.00661114 0.0169914 
198 1 0.00042 0.00624484 0.00848873 -4.45245e-05 -0.000285526 9.11682e-06 0 -3.6304e-08 -8.75126e-09 0 0.00198909 -0.0164562 -0.0184791 
264 1 0.00048 0.00695689 0.00902671 3.54547e-06 -0.000298413 1.54918e-05 0 -5.51825e-08 -1.43975e-08 0 -0.00419354 0.00774687 0.00277972 
232 1 0.00052 0.007419 0.00986994 -2.7703e-05 -0.000316207 2.82478e-05 0 -7.16318e-08 -2.12596e-08 0 0.00740549 0.00509827 0.0233893 
176 1 0.00046 0.00780118 0.00871421 -4.92713e-05 -0.000297432 2.17693e-05 0 -4.73443e-08 -1.12094e-08 0 -0.00220789 -0.00622398 0.0251109 
274 1 0.00048 0.00821557 0.00951181 1.26179e-05 -0.000309509 2.64169e-05 0 -5.6595e-08 -1.26726e-08 0 -0.00456666 -0.0106078 -0.0133074 
244 1 0.0005 0.0087207 0.00878935 4.93873e-05 -0.000305257 2.74955e-05 0 -6.01254e-08 -1.10627e-08 0 0.00942465 0.00367572 0.00602586 
228 1 0.00052 0.00911511 0.00970317 -4.18982e-05 -0.0003148 1.74273e-05 0 -7.21798e-08 -7.94636e-09 0 -0.00156247 0.0127841 0.0144456 
203 1 0.00058 0.00973141 0.00886008 -9.33208e-06 -0.000301504 2.03737e-05 0 -9.7005e-08 -1.01348e-08 0 -0.00947485 -0.0031503 -0.0113292 
225 1 0.00054 0.0106838 0.00928965 -3.72943e-05 -0.000293398 -1.5746e-05 0 -7.93303e-08 -2.67935e-09 0 0.00603812 0.00353109 -0.0153614 
284 1 0.00046 0.0113895 0.00989394 1.32074e-05 -0.000310516 -2.60795e-05 0 -4.93666e-08 1.92634e-09 0 -0.00596255 -0.00757944 0.0134581 
281 1 0.00046 0.0116273 0.00908065 3.24679e-05 -0.000303808 -3.42592e-05 0 -4.8291e-08 1.12603e-09 0 0.00793146 -0.0039098 -0.00570429 