ITEM: TIMESTEP
400900000
ITEM: NUMBER OF ATOMS
400
ITEM: BOX BOUNDS pp ff ff
0 0.02
0 0.04
-0.00065 0.00065
ITEM: ATOMS id type radius x y z vx vy vz fx fy fz omegax omegay omegaz 
74 1 0.00046 0.00132371 0.000443269 3.36586e-05 -2.97728e-05 -1.02389e-05 0 1.2204e-08 5.59274e-09 0 -0.0335245 -0.183118 0.0448861 
35 1 0.00052 0.000908004 0.00128651 -1.66342e-05 -3.28794e-05 1.06267e-05 0 -8.12477e-09 -1.87783e-08 0 0.110958 0.0554172 -0.0650064 
7 1 0.00056 0.000243035 0.000443234 -3.64628e-05 4.03886e-06 2.96553e-06 0 -6.89361e-08 1.97656e-08 0 -0.00633341 -0.053332 -0.0105476 
43 1 0.0005 0.00183089 0.00127706 5.09221e-06 -3.64618e-05 -2.07934e-05 0 -2.57803e-09 1.91262e-08 0 -0.043192 -0.0639568 0.0157251 
30 1 0.00052 0.00226634 0.000435489 -1.24497e-05 -1.7631e-05 -4.17372e-06 0 -1.50201e-09 4.48771e-09 0 0.00108107 0.149308 0.0175857 
67 1 0.00048 0.00273724 0.00128749 4.63423e-05 -3.72401e-05 -4.4393e-06 0 6.98894e-10 5.50846e-09 0 0.0613467 0.0682133 0.0315103 
17 1 0.00054 0.00324544 0.000516006 4.67087e-05 -1.6992e-05 1.67483e-06 0 -2.19466e-09 -1.20203e-09 0 0.00325058 -0.139051 0.0111237 
86 1 0.00044 0.00374147 0.00129208 -1.5404e-05 -3.76723e-05 6.54944e-06 0 -1.50395e-08 1.89836e-09 0 -0.129142 -0.010087 0.0267564 
84 1 0.00044 0.00460314 0.00119573 -2.0603e-05 -3.04683e-05 2.92413e-06 0 1.36705e-08 -7.17467e-09 0 0.093963 0.0158771 0.0158558 
54 1 0.0005 0.00417225 0.000417351 3.04549e-05 -1.19826e-05 4.51348e-07 0 -6.18814e-09 -3.39371e-09 0 0.00201153 0.142621 0.00479918 
46 1 0.0005 0.00511524 0.000469853 4.04467e-05 -1.6737e-05 2.39191e-06 0 -7.31734e-09 -2.34629e-09 0 0.00255062 -0.133037 0.0163651 
15 1 0.00054 0.00566688 0.00130837 -2.65834e-05 -3.45934e-05 4.09118e-06 0 3.66905e-08 3.94254e-09 0 -0.0588218 0.0478761 -0.000339041 
72 1 0.00048 0.00663841 0.00128989 -2.02466e-06 -4.09952e-05 5.50103e-06 0 2.212e-08 -4.37972e-08 0 0.0666251 -0.0541835 0.0454036 
78 1 0.00046 0.00602111 0.000419007 -1.20537e-05 -1.38089e-05 4.29532e-06 0 -3.564e-09 -3.67408e-09 0 -0.00249168 0.134322 0.0139778 
52 1 0.0005 0.00693099 0.000445652 3.91278e-05 -9.47967e-06 6.12363e-06 0 2.4412e-09 -2.60694e-08 0 -0.00164863 -0.114493 0.0111687 
8 1 0.00056 0.00824098 0.00117629 -1.82355e-06 -4.18578e-05 -9.24197e-07 0 -1.06569e-07 -2.05439e-08 0 0.0296725 -0.0130304 0.091907 
92 1 0.00042 0.00779482 0.000364232 3.24564e-05 -1.01563e-06 -5.64515e-06 0 -7.7343e-09 -1.43385e-08 0 0.00724979 0.129704 -0.022486 
60 1 0.00048 0.00876688 0.000399015 -3.28708e-05 -4.02725e-07 9.18437e-06 0 -1.14753e-08 7.84669e-10 0 0.00125735 -0.044459 -0.0119354 
32 1 0.00052 0.00929875 0.00138444 3.24568e-05 -5.42349e-05 -1.39888e-05 0 -9.0781e-08 -1.22144e-07 0 0.0152731 -0.0745423 0.0878675 
20 1 0.00054 0.0097569 0.000490933 -2.76781e-05 -9.64351e-06 -1.94015e-06 0 4.02343e-09 -3.95857e-08 0 -0.000432646 0.0397536 0.00546087 
28 1 0.00052 0.0103835 0.00131133 -4.92787e-05 -4.45735e-05 -1.07e-05 0 1.70161e-08 -6.58344e-08 0 0.0238663 -0.0144502 0.0415456 
34 1 0.00052 0.011375 0.00139205 -4.32784e-06 -4.9409e-05 -1.69433e-06 0 2.40581e-08 -3.48089e-08 0 -0.0150261 0.0144988 0.0211382 
59 1 0.00048 0.0107643 0.000443711 -3.96086e-06 -1.40279e-05 -4.16554e-06 0 1.03921e-08 -2.03348e-08 0 -0.000345075 -0.0407965 0.015647 
9 1 0.00056 0.0117788 0.000485663 -1.32742e-05 -2.0375e-05 7.88534e-07 0 6.10794e-08 3.1064e-09 0 -0.00357481 0.0315048 0.0240479 
19 1 0.00054 0.0124036 0.00133019 1.95463e-05 -4.20378e-05 8.35958e-06 0 9.85181e-08 1.01249e-08 0 0.0236307 -0.0135413 0.0154344 
68 1 0.00048 0.0127801 0.000442923 1.3181e-05 -2.03125e-05 4.46034e-06 0 4.35636e-08 3.19509e-09 0 -0.00287503 -0.0341617 0.0119407 
12 1 0.00056 0.0134316 0.00122631 3.75182e-05 -3.73559e-05 6.85487e-06 0 1.35292e-07 2.81383e-09 0 -0.00380023 0.0161164 0.00285321 
94 1 0.00042 0.0136128 0.000330159 1.89547e-05 -1.81919e-05 7.01705e-06 0 2.97328e-08 1.45981e-09 0 -0.00342792 0.0398427 0.0309037 
48 1 0.0005 0.0143487 0.00162043 1.99029e-05 -5.70923e-05 1.85756e-05 0 8.79071e-08 3.51413e-08 0 -0.00139232 -0.0189794 0.064018 
33 1 0.00052 0.0143633 0.000727561 -4.71808e-05 -2.54623e-05 1.03127e-05 0 9.08448e-08 1.35891e-08 0 0.0011513 -0.0339221 -0.00712734 
83 1 0.00046 0.0156439 0.00128583 1.72248e-05 -4.5079e-05 3.65743e-06 0 -5.91977e-08 3.00215e-10 0 -0.0769678 -0.166247 0.0351156 
29 1 0.00052 0.0152266 0.000427012 3.7231e-06 -1.75794e-05 4.53093e-06 0 4.81442e-08 -1.47148e-08 0 0.00240255 0.0421487 0.0194466 
91 1 0.00044 0.016546 0.00131535 3.54547e-05 -5.07262e-05 -1.79056e-05 0 -7.38836e-09 -3.31081e-09 0 -0.170197 0.159868 0.117259 
53 1 0.0005 0.0161568 0.000503706 -4.85386e-05 -1.92761e-05 -2.03142e-06 0 3.18774e-08 -5.93947e-09 0 0.196846 -0.0401807 -0.0446745 
65 1 0.00048 0.0177909 0.00133093 -3.92382e-05 -5.94447e-05 -6.38385e-06 0 4.53447e-08 -4.27136e-08 0 0.0600189 -0.0172616 0.105461 
4 1 0.00058 0.0171605 0.000537785 -3.8784e-05 -1.26081e-05 -1.28088e-05 0 2.48785e-08 -1.23357e-08 0 -0.00693821 0.0488911 0.00636649 
5 1 0.00056 0.0182407 0.0004861 3.096e-05 -8.86953e-06 -1.03912e-06 0 5.88952e-09 -4.39886e-08 0 -0.00395631 -0.0544689 0.00757726 
49 1 0.0005 0.0199932 0.00131548 4.93031e-05 -4.13358e-05 -4.78206e-06 0 3.84897e-09 3.82469e-08 0 0.0486009 -0.064289 0.109232 
40 1 0.0005 0.0189151 0.00128032 6.72355e-06 -5.54561e-05 -5.24347e-07 0 2.2697e-08 -4.05724e-08 0 -0.0351157 0.0185307 0.105646 
42 1 0.0005 0.0192495 0.000431088 -3.72737e-05 -3.22997e-06 7.33701e-06 0 -1.30986e-08 -3.13518e-08 0 0.00103416 0.061097 0.00762647 
18 1 0.00054 0.00090157 0.00230758 5.14548e-06 -7.57686e-05 9.56469e-06 0 -1.16358e-08 9.85523e-09 0 -0.141466 0.873671 0.147172 
50 1 0.0005 0.000372878 0.00315638 -4.9345e-05 -0.000132391 -3.07636e-05 0 -1.39493e-08 2.69068e-08 0 -0.273261 -0.197177 -0.0435715 
182 1 0.00046 0.00205775 0.00294564 -3.17454e-05 -0.000112176 -2.06294e-05 0 -7.4388e-09 5.64813e-09 0 0.0775266 0.0623014 0.0406368 
24 1 0.00052 0.00231721 0.00211863 -1.41959e-06 -7.13152e-05 -1.57862e-05 0 -2.45024e-09 1.00894e-08 0 -0.0500702 -0.0839746 0.0430813 
189 1 0.00044 0.00291604 0.00284992 3.50109e-05 -0.000100716 -8.34864e-06 0 5.19059e-09 -7.21073e-09 0 -0.0788717 -0.0703408 0.0111432 
66 1 0.00048 0.00325022 0.00201957 -3.46654e-05 -6.85233e-05 3.72374e-06 0 -6.6387e-09 1.23546e-08 0 0.0554467 0.0870143 0.0150551 
22 1 0.00054 0.00385643 0.00297752 -3.02218e-05 -0.00010302 1.2419e-06 0 2.90472e-08 -2.11185e-08 0 -0.0806813 0.0416116 0.0653626 
70 1 0.00048 0.00412289 0.00209086 3.70504e-05 -6.46162e-05 3.39855e-06 0 -4.03267e-09 -2.29653e-08 0 0.0907892 -0.0644872 -0.00214782 
164 1 0.00048 0.00497353 0.0030005 3.07542e-05 -0.00010394 -1.0213e-05 0 5.53814e-08 -1.05559e-08 0 0.0163207 -0.0933049 0.100058 
69 1 0.00048 0.00497062 0.00196099 -2.23732e-05 -6.12348e-05 7.07388e-06 0 -7.45942e-09 -1.01195e-08 0 -0.0509181 0.0536136 0.0372849 
89 1 0.00044 0.00563777 0.0024384 -2.11247e-06 -7.979e-05 3.65348e-06 0 2.66702e-09 -2.94189e-08 0 0.111906 -0.0116232 -0.0397056 
44 1 0.0005 0.00622662 0.00307393 -3.67063e-05 -0.000105681 3.55085e-06 0 6.53991e-09 -6.85567e-08 0 -0.0563758 0.0468953 0.0622722 
80 1 0.00046 0.00641608 0.00213347 3.11799e-05 -8.43477e-05 -1.2612e-06 0 -1.64827e-08 -6.57057e-08 0 -0.0610076 -0.00628787 0.0418292 
93 1 0.00042 0.0069815 0.00271088 -2.75116e-05 -9.42632e-05 9.18422e-06 0 -1.12953e-08 -2.04437e-08 0 0.0475717 -0.0280271 -0.0275133 
64 1 0.00048 0.00731012 0.00191238 4.80419e-05 -8.13307e-05 1.70652e-05 0 -1.98668e-08 -8.19831e-09 0 -0.0681142 0.0505979 0.0202487 
90 1 0.00044 0.0077173 0.00291366 1.77683e-05 -0.000103304 2.42522e-06 0 -1.88942e-08 -9.67383e-10 0 0.0580918 0.0543427 0.0433968 
1 1 0.00058 0.00827806 0.00219976 -3.97226e-05 -9.07301e-05 6.30582e-06 0 -9.40454e-08 1.16243e-09 0 -0.0253367 -0.0652305 -0.00489189 
31 1 0.00052 0.00875525 0.00312014 4.55657e-05 -0.000106566 7.7707e-06 0 1.20455e-08 -8.40711e-09 0 -0.0187169 -0.00107336 0.0134786 
82 1 0.00046 0.00923865 0.00230674 1.80717e-05 -9.43327e-05 -8.31019e-06 0 -5.03384e-08 -6.97786e-08 0 -0.0190571 0.0745121 -0.0194994 
14 1 0.00054 0.00979373 0.00312844 -3.93388e-05 -0.0001162 -2.76528e-06 0 -7.92847e-08 6.69558e-09 0 0.0261814 0.0020785 0.00699809 
39 1 0.0005 0.0101276 0.00222287 2.40231e-05 -9.08612e-05 -1.38199e-05 0 -5.21778e-08 -6.72192e-08 0 -0.00455603 -0.0642125 0.0204322 
162 1 0.00048 0.010728 0.00309798 2.716e-05 -0.000112814 -9.94675e-06 0 -3.49339e-08 -3.21722e-08 0 -0.0123317 0.00153849 0.00417141 
55 1 0.0005 0.0110878 0.00228134 -4.78087e-05 -8.9852e-05 -1.07507e-05 0 -4.10606e-08 -5.41466e-08 0 -0.0109452 0.0612675 0.0290284 
27 1 0.00052 0.0116485 0.00309625 -4.25165e-05 -0.000113398 -8.17279e-06 0 -4.10467e-08 -7.32293e-08 0 0.04186 -0.00676358 0.0043058 
45 1 0.0005 0.0120516 0.00222738 -4.01526e-05 -8.09035e-05 6.09504e-06 0 2.24301e-08 -1.55998e-08 0 0.000250039 -0.0670281 0.0510806 
26 1 0.00052 0.0126152 0.00312439 2.94528e-05 -0.000116949 -1.56964e-05 0 7.7697e-09 -6.43124e-08 0 -0.000167042 0.00613459 -0.000361759 
10 1 0.00056 0.0130996 0.00222929 4.21294e-05 -7.93823e-05 -3.88669e-06 0 1.11532e-07 -4.31318e-08 0 0.000784503 -0.00608134 0.0702892 
36 1 0.00052 0.0136425 0.00314411 2.4953e-06 -0.000120484 6.18647e-06 0 5.57653e-08 1.44115e-08 0 -0.00823238 -0.000208861 0.0180516 
87 1 0.00044 0.0141578 0.00242067 2.35941e-05 -0.000100928 1.27609e-05 0 5.34607e-08 3.21575e-08 0 0.00534579 0.00510673 0.0365046 
41 1 0.0005 0.0146193 0.00314269 -2.89305e-05 -0.00012325 2.0467e-05 0 6.17789e-08 7.93955e-08 0 -0.00344647 -0.00122565 0.0165338 
57 1 0.0005 0.0150731 0.00224547 3.21045e-05 -9.03082e-05 2.65498e-05 0 2.10772e-08 1.17766e-07 0 -0.0185226 -0.00167786 -0.0124379 
21 1 0.00054 0.0156053 0.00309079 2.08022e-05 -0.000112371 3.82661e-05 0 4.27507e-08 7.8741e-08 0 0.00892308 -0.00564377 0.0395053 
76 1 0.00046 0.0159969 0.00209424 1.69816e-05 -9.29486e-05 2.91609e-05 0 -3.61437e-08 1.87047e-08 0 0.0139774 0.00309593 0.0652061 
71 1 0.00048 0.0164934 0.0028461 -1.31875e-05 -0.000107133 2.56271e-05 0 3.64883e-08 -8.62278e-09 0 -0.0139246 0.0119506 -0.0551354 
81 1 0.00046 0.0169175 0.00207917 -2.13541e-05 -0.000112626 4.22179e-06 0 1.98909e-08 -2.61249e-08 0 0.130102 -0.223507 0.0143224 
63 1 0.00048 0.0173476 0.00302211 -2.48084e-05 -0.000109787 -6.82654e-06 0 4.0223e-08 -3.99737e-08 0 -0.055117 -0.0340971 -0.0160005 
16 1 0.00054 0.0178538 0.00224455 7.17441e-06 -0.00011184 -5.0305e-06 0 4.35878e-08 -8.96421e-08 0 -0.0515221 0.201956 0.00114626 
51 1 0.0005 0.0184328 0.00302922 -3.11061e-05 -0.000119765 -3.84024e-06 0 1.83199e-08 -3.55651e-08 0 0.126558 -0.137336 0.00167272 
37 1 0.00052 0.0188515 0.00220876 -6.697e-06 -0.000113178 -8.86158e-06 0 4.34886e-08 -4.51692e-08 0 0.0477978 -0.216402 0.0054675 
6 1 0.00056 0.0194227 0.00303843 1.88296e-05 -0.000127675 -6.20557e-06 0 -2.3736e-08 -2.03084e-08 0 -0.0832169 0.128582 0.0185032 
13 1 0.00054 0.0198422 0.00217642 2.40593e-05 -0.000104714 -5.24857e-06 0 7.87226e-08 5.26982e-08 0 -0.0799421 0.223577 0.0186057 
11 1 0.00056 0.00130718 0.0034644 4.11056e-07 -0.000130606 -2.70782e-05 0 -2.17504e-08 1.62579e-08 0 -0.174596 0.0264489 0.00853112 
179 1 0.00046 0.00152843 0.00437899 -3.43082e-05 -0.000163351 -1.79243e-05 0 -3.46983e-09 4.74722e-09 0 0.23247 0.0710957 0.0568981 
160 1 0.00048 0.000505953 0.00405232 4.11872e-05 -0.000154005 -3.57528e-05 0 -6.49589e-09 1.51577e-08 0 0.219742 -0.0353505 0.0645453 
3 1 0.00058 0.000777421 0.00499767 1.15215e-05 -0.000185777 -2.31834e-05 0 -1.69732e-08 -1.13734e-08 0 -0.182671 -0.0622086 -0.0023596 
62 1 0.00048 0.00224184 0.0038323 4.14547e-05 -0.000138848 -1.24693e-05 0 -3.69314e-09 -8.18846e-09 0 -0.102235 -0.144388 0.00227798 
171 1 0.00048 0.00261209 0.0046837 2.79416e-05 -0.00017802 2.6852e-06 0 3.25189e-09 -1.26158e-08 0 -0.0415212 -0.208307 0.0913016 
178 1 0.00046 0.00312568 0.00368772 -1.57031e-06 -0.000133776 -5.07165e-06 0 3.47893e-09 -1.13846e-08 0 0.0998394 0.137151 0.030131 
163 1 0.00048 0.0035839 0.00469886 5.32063e-06 -0.000180969 -1.40026e-05 0 2.33981e-11 -2.54096e-08 0 -0.0226463 -0.0758979 0.0681696 
155 1 0.0005 0.00400675 0.00391643 -2.6529e-06 -0.0001465 2.48638e-06 0 1.46611e-09 -1.84032e-08 0 0.0901669 -0.0643663 0.00453386 
103 1 0.00056 0.00456949 0.00494648 -3.58607e-05 -0.000187402 -5.39277e-07 0 -1.47446e-08 -1.51653e-08 0 -0.0343449 0.0540889 0.0138308 
108 1 0.00054 0.00498225 0.00397147 -2.13321e-05 -0.000158984 -1.63072e-06 0 -2.6149e-08 -2.84062e-08 0 -0.0121837 0.0547199 0.00945467 
106 1 0.00056 0.00564619 0.00479149 -4.97251e-05 -0.000180776 3.95265e-06 0 -3.76097e-08 -3.49928e-08 0 0.00564719 -0.0539231 0.0214926 
187 1 0.00046 0.00595873 0.00390429 -2.41619e-05 -0.000155024 2.64643e-06 0 -3.54944e-08 -4.42331e-08 0 0.0430187 -0.048677 0.0289925 
116 1 0.00054 0.006661 0.00459886 -2.57589e-05 -0.000170844 4.19195e-06 0 -1.8638e-08 -6.20112e-08 0 -0.0025554 0.0507128 0.00100879 
138 1 0.0005 0.00700859 0.00365698 -4.22335e-05 -0.00014344 1.13007e-05 0 -7.30284e-09 -2.93082e-10 0 0.0141366 -0.0869549 0.00968642 
95 1 0.00058 0.00773069 0.0046266 4.30556e-05 -0.000168822 7.32483e-06 0 3.11866e-08 9.96704e-09 0 -0.00203436 -0.038147 0.0289569 
61 1 0.00048 0.00794707 0.00368344 4.42331e-05 -0.000132682 7.12686e-06 0 1.42928e-08 -4.1084e-09 0 -0.00571696 0.098321 0.0117927 
153 1 0.0005 0.00876363 0.0040621 -4.39636e-05 -0.00013304 1.95598e-05 0 1.41078e-09 2.73661e-08 0 0.026429 -0.0817473 0.0394409 
38 1 0.0005 0.00978526 0.00487479 4.93343e-05 -0.000154348 5.36472e-05 0 1.57113e-07 1.84521e-07 0 0.0495072 -0.130782 0.108536 
75 1 0.00046 0.00959681 0.00400288 4.05756e-05 -0.000117223 1.9501e-05 0 5.1614e-08 9.11292e-08 0 -0.0620262 0.0929489 -0.0324724 
169 1 0.00048 0.008692 0.00490945 -1.72291e-05 -0.000176212 2.40729e-05 0 -3.11787e-09 -6.38401e-09 0 -0.0271475 0.036614 0.0314209 
191 1 0.00044 0.0104113 0.00387926 -3.72271e-05 -0.000119339 -9.69918e-06 0 2.06024e-08 2.4159e-08 0 0.0438067 -0.091491 0.00174319 
166 1 0.00048 0.0107513 0.004671 4.50596e-05 -0.000210241 3.70324e-06 0 -3.19656e-08 1.01146e-07 0 -0.0386868 0.0792841 0.200981 
88 1 0.00044 0.0112699 0.00394443 1.35023e-05 -0.000125803 1.20285e-05 0 2.03496e-09 -7.37813e-09 0 -0.0932273 0.0933238 -0.00130085 
152 1 0.0005 0.0119197 0.00475335 3.81834e-05 -0.000189227 -4.05952e-05 0 -5.90807e-08 2.56172e-08 0 0.0326799 -0.0158303 0.0564188 
85 1 0.00044 0.0121291 0.00389267 3.14585e-06 -0.000135529 -2.03534e-05 0 -4.64152e-08 -2.39916e-08 0 -0.0357283 0.0437036 0.0462533 
151 1 0.0005 0.0128882 0.00492772 -2.4127e-05 -0.000198873 -2.55598e-05 0 -4.34956e-08 -7.81037e-08 0 -0.0149227 0.014613 0.0250928 
99 1 0.00056 0.0131171 0.0039944 1.0814e-05 -0.000148763 -1.14602e-05 0 -6.52277e-08 -7.61586e-08 0 0.00671804 0.00253572 0.0567429 
174 1 0.00046 0.0137488 0.00483784 -4.51984e-05 -0.000189274 6.93643e-06 0 -4.28959e-08 -2.62666e-08 0 -0.0220537 -0.00666745 0.083588 
110 1 0.00054 0.0141731 0.00402833 1.00341e-06 -0.000147848 1.72977e-05 0 1.82048e-08 3.54153e-08 0 0.0124255 1.56471e-05 0.0157214 
126 1 0.00052 0.0146941 0.00489118 6.87793e-06 -0.000168508 1.22285e-05 0 -5.53429e-08 1.00789e-08 0 -0.00170712 0.0163844 -0.00123971 
25 1 0.00052 0.0151416 0.00395969 1.87838e-05 -0.000147504 2.53893e-05 0 3.39015e-08 9.32941e-08 0 -0.00365944 0.000863495 0.0190076 
47 1 0.0005 0.0160664 0.0041557 4.33922e-05 -0.000161384 9.79846e-06 0 -8.296e-09 7.01531e-08 0 -0.00473668 -0.0109197 -0.0336938 
79 1 0.00046 0.0167637 0.00468913 2.18197e-05 -0.000165465 -1.89141e-06 0 2.54277e-09 2.19193e-08 0 -0.0611614 -0.0350615 0.0312043 
56 1 0.0005 0.0170154 0.00386718 -2.12721e-05 -0.000167303 -1.65214e-05 0 -9.754e-08 -5.95206e-08 0 0.0624258 0.0263356 -0.0499792 
77 1 0.00046 0.0176465 0.00460815 6.56493e-06 -0.000178856 -6.66831e-06 0 -4.79786e-08 -1.52874e-08 0 0.0153239 0.0370013 -0.0134862 
130 1 0.00052 0.0179489 0.00377686 9.36883e-06 -0.000153606 -1.11588e-05 0 -4.79655e-08 -5.67775e-08 0 -0.0112371 -0.0347832 0.0593231 
2 1 0.00058 0.0186813 0.00453778 3.03201e-05 -0.00018044 -8.40068e-06 0 -8.19984e-08 -2.05884e-09 0 -0.047702 -0.0308503 -0.0112559 
73 1 0.00046 0.0193946 0.00392451 1.43967e-05 -0.00016546 -8.51167e-06 0 -5.50293e-08 -2.29801e-08 0 0.0819243 0.0300758 0.0494502 
23 1 0.00054 0.0197363 0.00478757 -2.66714e-05 -0.000183454 -1.7467e-05 0 -3.4047e-08 -4.3542e-08 0 -0.0371541 0.0200406 -0.0107204 
135 1 0.0005 0.0011778 0.00594877 1.46596e-05 -0.000231936 -2.22637e-05 0 -3.61351e-08 3.14628e-09 0 0.16445 0.0213606 0.0815829 
197 1 0.00042 0.000302393 0.00650269 -3.99128e-05 -0.000267448 5.79265e-07 0 3.02508e-08 7.69459e-09 0 -0.0301633 0.060667 0.0831157 
58 1 0.0005 6.86084e-05 0.00571411 -3.26099e-05 -0.000205182 -2.23328e-05 0 1.57312e-08 -2.96534e-09 0 0.104444 0.186221 0.0500759 
139 1 0.0005 0.00179688 0.00521744 -7.07934e-06 -0.000198147 -8.20633e-06 0 -8.96054e-09 7.34502e-10 0 -0.18728 -0.013921 0.0219466 
109 1 0.00054 0.00211173 0.00645864 -2.06108e-05 -0.00025454 -8.3222e-06 0 -1.90033e-08 -3.12696e-08 0 -0.00647326 0.0270445 0.0460454 
156 1 0.0005 0.00261217 0.00563278 3.54227e-05 -0.000221046 -1.00238e-06 0 -3.67622e-09 -1.86616e-08 0 0.0299751 -0.0607286 0.0036188 
175 1 0.00046 0.00310822 0.00641053 -2.96496e-05 -0.000243285 -8.75283e-06 0 -8.1113e-09 -2.4315e-08 0 -0.0683193 -0.00708701 0.0422327 
114 1 0.00054 0.00356565 0.00562807 1.90715e-05 -0.000218385 -4.59307e-06 0 -1.08961e-08 -4.4856e-08 0 0.0240073 0.0541799 0.00259208 
185 1 0.00046 0.00442534 0.00591188 1.72497e-05 -0.000217087 -1.65604e-06 0 -1.43148e-08 -1.27083e-08 0 0.0382929 -0.0376083 0.0105743 
102 1 0.00056 0.00533943 0.00576111 2.50127e-05 -0.000212884 1.84766e-06 0 -3.26907e-08 2.3001e-08 0 0.00432098 0.0187006 0.0280071 
192 1 0.00044 0.00593143 0.00650229 -4.27825e-05 -0.00024101 4.84368e-06 0 -2.63978e-08 3.25456e-08 0 0.0114454 0.00871105 -0.00344956 
188 1 0.00044 0.00627599 0.00553413 2.43943e-05 -0.000200849 8.62817e-07 0 -2.21703e-08 -3.34231e-08 0 -0.072616 -0.00302963 -0.0287578 
149 1 0.0005 0.00677527 0.00637433 -3.07296e-05 -0.000237893 -4.08319e-07 0 -6.27407e-08 2.02136e-08 0 -0.00782729 -0.0159254 0.0103371 
131 1 0.00052 0.0071866 0.00549507 -2.4969e-05 -0.000203579 -1.70405e-06 0 -5.39631e-08 -4.20307e-08 0 0.024136 -0.00286912 0.0372333 
237 1 0.00052 0.00768324 0.00633614 1.47771e-05 -0.000234501 9.70687e-06 0 -6.71599e-08 -6.13519e-09 0 -0.0105407 0.0223997 0.023299 
159 1 0.00048 0.00815926 0.00556094 -2.62417e-05 -0.000209707 1.5674e-05 0 -2.93681e-08 1.26136e-08 0 -0.0114206 0.00970462 0.0382192 
125 1 0.00052 0.00861879 0.00633267 -3.20614e-05 -0.000229909 1.37356e-05 0 -4.36202e-08 -7.38568e-08 0 -0.00267834 -0.0298367 -0.0154627 
136 1 0.0005 0.00923847 0.00566184 -4.70071e-05 -0.000214697 3.24863e-05 0 1.17559e-08 2.11107e-08 0 0.0452822 -0.00947989 0.0592202 
170 1 0.00048 0.0100964 0.00575436 4.476e-05 -0.0002199 8.40879e-05 0 6.08645e-08 2.39935e-07 0 -0.0964755 0.00489044 0.0379375 
167 1 0.00048 0.0109099 0.00555409 -5.06646e-06 -0.000235632 1.66028e-05 0 3.67774e-08 1.53592e-07 0 0.0563882 0.00286395 -0.176396 
123 1 0.00052 0.0113653 0.00651018 -4.22073e-05 -0.000227534 -5.41341e-06 0 2.65635e-07 1.77256e-07 0 0.0323554 0.0350785 -0.110951 
168 1 0.00048 0.0117381 0.0056633 2.60985e-05 -0.000233468 -4.46039e-05 0 5.34149e-08 1.47657e-08 0 -0.0403377 0.00304924 0.0334638 
150 1 0.0005 0.0123157 0.00640224 1.83575e-05 -0.00023674 -3.82461e-05 0 1.49281e-07 -2.31518e-08 0 0.0051045 -0.0435261 0.00781377 
196 1 0.00042 0.0125021 0.00559604 -2.28987e-05 -0.000222738 -3.32074e-05 0 5.33934e-08 -2.23648e-09 0 0.012049 -0.00780727 0.0162618 
157 1 0.0005 0.0131973 0.00609235 2.90979e-05 -0.000230817 -1.57117e-05 0 9.52172e-08 3.34285e-08 0 0.0142973 0.0323022 0.043681 
96 1 0.00058 0.0141384 0.00577084 4.28851e-05 -0.000221109 -1.24494e-05 0 1.16262e-08 -1.47504e-08 0 0.0102189 -0.0365845 -0.0369747 
115 1 0.00054 0.0151614 0.00589261 -1.46308e-05 -0.000218566 -1.83838e-05 0 -3.54087e-08 -5.26466e-08 0 -0.0301767 0.0409621 0.0394353 
143 1 0.0005 0.0156643 0.00502224 -7.56683e-06 -0.000173528 7.1825e-06 0 -1.28209e-08 2.62468e-08 0 0.013428 -0.0114168 0.0313477 
141 1 0.0005 0.0160385 0.00623952 -4.83823e-05 -0.000225904 2.95711e-06 0 -7.00854e-08 -2.19578e-08 0 -0.0197393 -0.0681982 0.0442568 
146 1 0.0005 0.0165009 0.00551971 2.89194e-05 -0.000191257 4.28491e-06 0 -4.56597e-08 2.35749e-09 0 0.0456563 0.0416801 0.0146153 
195 1 0.00044 0.0169691 0.0063225 3.21564e-05 -0.000239309 2.51759e-06 0 -6.87949e-08 -1.73574e-08 0 0.0329537 0.0926242 0.0731889 
190 1 0.00044 0.0173039 0.00537635 -4.85919e-05 -0.000179372 1.89313e-06 0 -1.50492e-09 2.01786e-08 0 -0.00831119 -0.0560363 -0.0111421 
101 1 0.00056 0.0180573 0.00628185 -1.12464e-05 -0.000236823 -3.62557e-06 0 -2.78792e-08 1.17746e-08 0 -0.027545 0.0128427 0.0923225 
147 1 0.0005 0.0181284 0.00535515 3.12852e-05 -0.000178486 -6.1771e-06 0 1.33074e-09 5.17692e-09 0 0.036126 0.0470081 0.00513818 
172 1 0.00048 0.0192722 0.00635894 2.46256e-05 -0.000247173 -1.01764e-05 0 7.11124e-08 -2.66205e-08 0 -0.0685845 -0.0837259 0.139692 
144 1 0.0005 0.0190439 0.00548947 -4.44854e-05 -0.000178304 -1.37411e-05 0 3.45906e-08 -2.59642e-08 0 0.0378341 -0.0289772 -0.00325094 
194 1 0.00044 0.00124693 0.00681293 -2.73404e-05 -0.000279075 -1.77188e-05 0 -9.89291e-09 4.43553e-09 0 -0.151375 0.0183779 0.000597321 
107 1 0.00054 0.00112238 0.0079587 -3.38667e-05 -0.000296055 -6.23159e-06 0 1.47134e-08 2.22606e-08 0 0.0145548 0.0311925 -0.0029266 
193 1 0.00044 0.000581542 0.00725952 -4.2113e-05 -0.000293126 -3.8777e-06 0 1.18812e-08 2.18152e-08 0 0.0477757 0.0368651 -0.0054426 
211 1 0.00056 9.03678e-05 0.00807602 1.49646e-05 -0.000299336 -1.85194e-07 0 2.23095e-08 3.71176e-08 0 -0.0191438 -0.0330877 0.00696212 
137 1 0.0005 0.00188492 0.00742463 7.74856e-06 -0.000287582 -1.25135e-05 0 -7.06956e-09 -1.69708e-08 0 0.0286838 -0.07257 0.0121864 
177 1 0.00046 0.00203609 0.00829802 5.5329e-07 -0.00030235 -1.06827e-05 0 -5.86597e-09 -1.11301e-08 0 -0.0291037 -0.0195535 0.0110663 
118 1 0.00054 0.00281678 0.00725576 3.67542e-05 -0.000277932 -7.17827e-06 0 -2.45405e-08 -4.59178e-08 0 0.0445593 0.0436483 0.0148235 
273 1 0.00048 0.00290932 0.00819975 1.2865e-05 -0.000298955 -4.64032e-06 0 -1.64669e-08 -2.64464e-08 0 -0.0327061 0.0222902 0.0197798 
132 1 0.00052 0.00372869 0.00772281 -4.70278e-05 -0.000286947 -4.23888e-06 0 -2.06771e-08 -3.00139e-08 0 0.0105786 -0.0119137 0.00300786 
127 1 0.00052 0.00398249 0.00673791 -1.13161e-05 -0.000252427 4.75138e-06 0 -2.076e-08 -3.38079e-08 0 -0.00604128 -0.0117852 0.0332473 
142 1 0.0005 0.00470364 0.00768209 1.72877e-05 -0.000284165 -8.82414e-06 0 -1.54883e-08 3.52129e-08 0 -0.00195217 0.0122697 0.00802164 
97 1 0.00058 0.00503819 0.00677336 -4.33679e-05 -0.000252473 -9.12443e-06 0 -2.8923e-08 7.77049e-08 0 -0.0068374 0.000308132 0.0435252 
129 1 0.00052 0.00567031 0.00765957 7.98975e-06 -0.000279026 -1.23188e-06 0 -1.37386e-08 8.52523e-08 0 0.000960673 -0.0128951 0.013205 
145 1 0.0005 0.00644799 0.00722424 -4.89198e-05 -0.00025975 1.99568e-06 0 -3.40279e-08 5.97511e-08 0 0.00616095 0.0088517 0.0190035 
117 1 0.00054 0.00702211 0.0080864 -1.8846e-05 -0.000291408 2.66594e-06 0 -4.96722e-08 7.35867e-08 0 -0.00137 0.000850148 0.0306415 
158 1 0.00048 0.00734462 0.00719574 -2.80691e-05 -0.000261677 5.66517e-06 0 -4.04215e-08 1.31896e-08 0 0.0070792 -0.00808328 0.0125949 
303 1 0.00042 0.00790448 0.00787682 -4.34141e-05 -0.000287472 1.45325e-05 0 -3.0094e-08 1.46805e-09 0 -0.0108523 -0.00468885 0.0137455 
184 1 0.00046 0.00822513 0.00712427 2.59556e-05 -0.00025803 1.77984e-05 0 -1.73954e-08 -1.75118e-08 0 0.0181843 0.00184223 0.0462093 
111 1 0.00054 0.00882433 0.00784949 -3.81694e-05 -0.000295828 2.96902e-05 0 -1.03325e-07 1.07712e-08 0 -0.00629539 0.00649678 0.0274216 
210 1 0.00056 0.0093985 0.00692612 -2.37608e-06 -0.000253923 3.55542e-05 0 -1.00861e-07 -6.64364e-08 0 0.000958512 0.0311025 0.115914 
233 1 0.00052 0.00981256 0.00783021 -1.57412e-05 -0.000315759 2.68266e-05 0 -8.93811e-08 -8.9598e-08 0 0.0180499 -0.0063051 -0.0225769 
100 1 0.00056 0.0103908 0.0066838 -1.47472e-05 -0.000223612 9.52049e-05 0 -2.6192e-08 3.86477e-07 0 0.0659409 -0.0486842 -0.0196049 
213 1 0.00056 0.0107215 0.00823264 4.979e-05 -0.000308407 -3.64408e-05 0 5.30275e-08 -3.16033e-07 0 0.0018389 0.0144776 -0.0661577 
199 1 0.00042 0.0110237 0.00736116 2.22644e-05 -6.05586e-05 1.35085e-05 0 1.08564e-07 -1.08287e-07 0 -0.097638 0.062333 -0.219763 
120 1 0.00052 0.0117016 0.00820668 -4.55597e-05 -0.000294503 -4.50329e-05 0 7.63014e-08 -9.01768e-08 0 -0.00447877 -0.0168344 0.0478054 
112 1 0.00054 0.012021 0.0072978 -4.5975e-05 -0.000245797 -3.67789e-05 0 2.38281e-07 -2.29312e-08 0 0.00446347 0.0144273 0.0438077 
161 1 0.00048 0.0128369 0.00785048 4.23607e-05 -0.000281115 -2.3139e-05 0 7.435e-08 3.81122e-08 0 0.0134231 -0.0144914 0.0200815 
186 1 0.00046 0.013003 0.00699118 4.20701e-05 -0.00025842 -2.35528e-05 0 7.12191e-08 1.97079e-08 0 -0.0233572 0.0352361 0.028854 
104 1 0.00056 0.0138306 0.00781487 -5.04024e-06 -0.000282359 -1.57648e-05 0 4.48317e-08 3.07132e-08 0 0.00342903 0.0142498 0.0186684 
148 1 0.0005 0.0138868 0.00679783 1.64328e-05 -0.000261719 -1.84469e-05 0 1.90067e-08 1.57421e-08 0 -0.00674556 -0.0268309 -0.00716341 
154 1 0.0005 0.0148335 0.00792151 -1.6913e-05 -0.000288165 -1.04618e-05 0 -3.84083e-08 -8.73786e-09 0 -0.0103364 -0.0171847 0.0135734 
98 1 0.00058 0.0148904 0.00691061 -4.21217e-05 -0.00026348 -1.87754e-05 0 -7.80164e-08 -7.20603e-08 0 0.00950522 0.0240539 0.0223904 
128 1 0.00052 0.0158014 0.00811078 -3.94419e-05 -0.000295941 -1.76915e-06 0 -1.08029e-07 -1.3668e-08 0 -0.021168 0.0110004 0.0185577 
121 1 0.00052 0.0158973 0.00713286 -1.21974e-05 -0.000270999 -1.4094e-06 0 -1.00254e-07 -4.20076e-08 0 0.0262038 -0.0165713 0.0328452 
124 1 0.00052 0.0166641 0.00770144 -3.70828e-05 -0.000287321 3.33904e-06 0 -1.25264e-07 -7.70155e-08 0 -0.0282825 0.00968283 -0.00322717 
119 1 0.00054 0.017469 0.0071499 -3.33274e-05 -0.000283768 -5.19621e-06 0 -1.15777e-07 -7.70935e-08 0 0.0148542 0.00362567 -0.00431371 
165 1 0.00048 0.0181346 0.00805623 -3.83096e-05 -0.000302696 5.93707e-06 0 -9.73719e-09 -6.51481e-09 0 -0.0126033 -0.0116321 0.00610117 
113 1 0.00054 0.0184849 0.0071753 -2.02095e-05 -0.000289735 9.55003e-06 0 -4.43358e-08 2.3505e-08 0 0.0250243 -0.00674507 0.0181875 
173 1 0.00048 0.0191562 0.00778204 -4.84051e-05 -0.000296438 6.38145e-06 0 1.0199e-08 1.24193e-08 0 -0.00554896 0.0290453 -0.00279006 
140 1 0.0005 0.0197362 0.00712968 -3.46879e-05 -0.00029618 1.64796e-06 0 3.02923e-08 4.43756e-09 0 0.000615865 -0.024411 -0.0140708 
215 1 0.00054 0.00157825 0.00914981 2.66777e-05 -0.000317072 -6.49035e-06 0 1.127e-08 1.61707e-08 0 0.0201388 -0.00597619 -0.000717643 
301 1 0.00042 0.000782002 0.00875817 -3.96098e-06 -0.000310485 -2.53283e-06 0 1.19425e-08 1.83883e-08 0 -0.0287319 -0.00461255 0.0129685 
248 1 0.0005 0.00071126 0.00962893 -1.72888e-05 -0.000322281 -1.70987e-06 0 2.6455e-08 3.37996e-08 0 0.0152409 0.00111593 -0.00313203 
229 1 0.00052 0.0022971 0.00997602 2.41907e-05 -0.000334662 -6.44402e-06 0 3.04054e-09 -5.23067e-09 0 -0.01268 0.00323388 0.0050711 
236 1 0.00052 0.00256101 0.00906456 4.87165e-05 -0.000316491 -6.99293e-06 0 -1.53823e-08 -2.25297e-08 0 0.0158506 0.00542689 0.0135454 
291 1 0.00046 0.00320852 0.00972723 7.50784e-06 -0.000329715 -1.12028e-06 0 -1.46855e-08 -2.08872e-08 0 -0.013577 0.000440839 0.0247806 
286 1 0.00046 0.00345803 0.00889109 -7.08428e-06 -0.000310535 -4.27051e-06 0 -2.43097e-08 -2.00313e-08 0 0.0233745 -0.0200094 -0.00227704 
234 1 0.00052 0.00417073 0.00954441 6.12283e-06 -0.00032646 -3.84956e-06 0 -5.12833e-08 -1.90807e-08 0 -0.00761748 0.0184558 0.028497 
201 1 0.00058 0.00433851 0.00858009 1.74262e-06 -0.00030134 -5.87214e-06 0 -6.95108e-08 -1.01205e-08 0 -0.00354574 0.0115413 0.0125203 
265 1 0.00048 0.00514657 0.00943836 -2.81666e-05 -0.000324533 1.87689e-06 0 -4.62398e-08 6.34904e-09 0 -0.00399222 -0.0158376 0.0141096 
134 1 0.00052 0.00533444 0.00853147 -1.04316e-05 -0.000301042 5.61724e-08 0 -4.03947e-08 6.42454e-08 0 0.00840324 -0.0108782 0.0170257 
247 1 0.0005 0.00609374 0.009378 9.49774e-06 -0.000322925 3.88458e-06 0 -1.51168e-08 6.49991e-08 0 0.00632882 0.0107686 0.0151518 
198 1 0.00042 0.00621423 0.00848916 -4.45245e-05 -0.000303783 -8.71992e-07 0 -1.00626e-08 5.18898e-08 0 -0.0128592 0.00953273 -0.00755888 
264 1 0.00048 0.00692501 0.0090278 3.54547e-06 -0.000315375 6.23789e-06 0 5.15506e-09 8.12826e-08 0 0.000757965 -0.0118407 0.00948569 
232 1 0.00052 0.00738543 0.00987221 -2.7703e-05 -0.00033341 1.5934e-05 0 4.42098e-08 9.47549e-08 0 0.00255319 0.00991628 0.0226136 
176 1 0.00046 0.00776946 0.00871597 -4.92713e-05 -0.000309956 1.50752e-05 0 -2.92861e-08 4.88171e-08 0 0.00638182 0.00477923 0.0206897 
274 1 0.00048 0.00818266 0.00951396 1.26179e-05 -0.000322222 1.76184e-05 0 3.95993e-08 5.50962e-08 0 -0.00310087 -0.0136371 -0.00509295 
244 1 0.0005 0.00868829 0.00879168 4.93873e-05 -0.000314052 2.09742e-05 0 -6.78268e-08 -2.54305e-08 0 0.00733382 0.00218161 0.00785343 
228 1 0.00052 0.00908171 0.00970461 -4.18982e-05 -0.000326453 1.64826e-05 0 4.60528e-08 -6.44785e-08 0 0.00304856 0.0192717 0.0243827 
203 1 0.00058 0.00969936 0.00886179 -9.33208e-06 -0.000311115 8.39751e-06 0 -1.25888e-08 -2.1826e-07 0 -0.0159836 -0.00511476 -0.0245919 
225 1 0.00054 0.0106526 0.00928793 -3.72943e-05 -0.0003061 -2.69552e-05 0 -4.32738e-08 -2.13904e-07 0 -0.00288116 0.000752353 0.00502468 
284 1 0.00046 0.0113566 0.00989129 1.32074e-05 -0.000329242 -2.59603e-05 0 -7.08356e-08 -6.32218e-08 0 -0.00676121 -0.0138693 0.0161557 
281 1 0.00046 0.0115951 0.00907724 3.24679e-05 -0.000316355 -3.29028e-05 0 -1.47078e-08 -5.85068e-08 0 0.00740997 -0.00309162 -0.000251647 
209 1 0.00056 0.0122805 0.00975842 -1.82378e-05 -0.000327945 -2.23193e-05 0 -6.4188e-08 -6.74214e-08 0 0.00166931 0.00979838 0.0191999 
105 1 0.00056 0.0125339 0.00875907 4.17083e-05 -0.000307405 -2.44382e-05 0 2.41449e-08 -8.59514e-09 0 -0.00767272 0.006204 0.0135164 