ITEM: TIMESTEP
400760000
ITEM: NUMBER OF ATOMS
400
ITEM: BOX BOUNDS pp ff ff
0 0.02
0 0.04
-0.00065 0.00065
ITEM: ATOMS id type radius x y z vx vy vz fx fy fz omegax omegay omegaz 
74 1 0.00046 0.00132801 0.000444279 3.36586e-05 -3.9232e-05 -1.0106e-05 0 -2.32179e-08 -6.52942e-09 0 -0.00199193 0.0260407 0.0519191 
35 1 0.00052 0.000914053 0.00128473 -1.66342e-05 -5.53755e-05 1.42883e-05 0 -4.76074e-08 7.33395e-09 0 -0.041424 0.0533918 -0.0668389 
7 1 0.00056 0.000242591 0.000443405 -3.64628e-05 6.23446e-06 -2.66258e-06 0 5.94612e-09 -4.89485e-09 0 0.00179925 0.0129017 -0.012843 
49 1 0.0005 8.61708e-07 0.00131826 4.93031e-05 -7.10315e-05 -2.79373e-05 0 -5.05176e-08 -2.19708e-08 0 0.00712172 -0.0561437 0.200415 
43 1 0.0005 0.00183669 0.00127925 5.09221e-06 -5.35774e-05 -2.38565e-05 0 -4.12335e-08 -1.5744e-08 0 0.0443036 -0.0547606 0.0126074 
30 1 0.00052 0.00226916 0.000435918 -1.24497e-05 -2.46045e-05 -5.47572e-06 0 -2.32108e-08 -2.15054e-09 0 0.000930513 -0.0195721 0.0224578 
67 1 0.00048 0.00274286 0.001288 4.63423e-05 -5.3048e-05 -6.27366e-06 0 -3.27467e-08 -1.07018e-09 0 -0.00366783 0.0503831 0.0399013 
17 1 0.00054 0.00324805 0.000515656 4.67087e-05 -2.41288e-05 8.80251e-07 0 -2.34944e-08 4.20209e-09 0 -0.0132048 0.00878958 0.0141551 
86 1 0.00044 0.00374683 0.0012911 -1.5404e-05 -5.26096e-05 6.78663e-06 0 -2.82306e-08 5.03348e-09 0 0.0195956 -0.00326125 0.023579 
84 1 0.00044 0.00460772 0.00119536 -2.0603e-05 -4.27878e-05 8.23974e-07 0 -1.96612e-08 2.38231e-09 0 -0.000348418 -0.00288741 0.02809 
54 1 0.0005 0.00417402 0.000417254 3.04549e-05 -1.73581e-05 2.89199e-07 0 -1.37471e-08 1.86034e-09 0 -0.00169771 -0.00710095 0.0106632 
46 1 0.0005 0.00511756 0.000469602 4.04467e-05 -2.05626e-05 1.24188e-06 0 -1.45367e-08 3.97345e-09 0 0.00253146 0.00780477 0.0131819 
15 1 0.00054 0.00567207 0.00130804 -2.65834e-05 -4.87365e-05 1.01185e-06 0 -3.78053e-08 7.36493e-09 0 0.00934066 0.0362399 0.00923019 
72 1 0.00048 0.00664436 0.00128879 -2.02466e-06 -5.60833e-05 6.05494e-06 0 -3.2388e-08 -4.53348e-10 0 0.0119258 -0.0462768 0.0540672 
78 1 0.00046 0.00602303 0.000418457 -1.20537e-05 -1.80308e-05 3.37176e-06 0 -1.05884e-08 2.55709e-09 0 -0.00887904 -0.0149288 0.02144 
52 1 0.0005 0.00693232 0.000444613 3.91278e-05 -1.23555e-05 8.41865e-06 0 -1.03225e-08 4.09021e-09 0 7.55416e-05 0.0166508 0.0168469 
8 1 0.00056 0.00824647 0.00117589 -1.82355e-06 -4.68842e-05 1.13936e-06 0 -3.23648e-08 -7.58782e-09 0 -0.00538478 0.010377 0.118946 
92 1 0.00042 0.00779487 0.000364763 3.24564e-05 1.82338e-07 -5.69864e-06 0 -2.06751e-09 -1.54219e-09 0 0.000133777 -0.0212608 -0.0324946 
60 1 0.00048 0.0087668 0.000397511 -3.28708e-05 2.06921e-06 1.23661e-05 0 -2.25531e-09 1.54696e-09 0 -0.000776161 -0.00251423 -0.0206896 
32 1 0.00052 0.00930686 0.00138609 3.24568e-05 -7.40842e-05 -1.81223e-05 0 -4.37998e-08 -1.55431e-08 0 0.0409863 -0.0800044 0.114961 
20 1 0.00054 0.00975826 0.000490902 -2.76781e-05 -1.23619e-05 -1.47578e-06 0 -1.18096e-08 -4.12261e-09 0 -0.00211532 0.00179666 0.0102041 
28 1 0.00052 0.0103897 0.00131238 -4.92787e-05 -5.90309e-05 -1.26585e-05 0 -4.08093e-08 -1.30717e-08 0 0.00924834 0.00306962 0.0555487 
34 1 0.00052 0.0113818 0.00139185 -4.32784e-06 -6.46154e-05 -3.38077e-06 0 -4.42588e-08 -4.65038e-09 0 0.012662 -0.00350798 0.0197429 
59 1 0.00048 0.0107663 0.00044403 -3.96086e-06 -1.79424e-05 -4.5745e-06 0 -1.01871e-08 -3.75151e-09 0 -0.00357991 -0.00470579 0.018251 
9 1 0.00056 0.0117816 0.000485297 -1.32742e-05 -2.73543e-05 -1.03905e-06 0 -2.27038e-08 -5.68069e-10 0 -0.00401797 0.00181009 0.0313757 
19 1 0.00054 0.0124093 0.00132874 1.95463e-05 -5.92565e-05 5.73271e-06 0 -4.36419e-08 5.67924e-09 0 0.00778173 0.00396577 0.0294758 
68 1 0.00048 0.0127828 0.000442215 1.3181e-05 -2.69606e-05 4.45484e-06 0 -1.41462e-08 3.26611e-09 0 -0.00292769 -0.00591025 0.017004 
12 1 0.00056 0.0134366 0.00122559 3.75182e-05 -5.24286e-05 8.63743e-06 0 -4.22019e-08 8.59345e-09 0 -0.00441538 -0.00423218 0.00544379 
94 1 0.00042 0.0136153 0.000329383 1.89547e-05 -2.48862e-05 8.04518e-06 0 -8.30711e-09 3.26699e-09 0 0.00135088 0.00894086 0.0406115 
48 1 0.0005 0.0143563 0.00161872 1.99029e-05 -7.42368e-05 1.80792e-05 0 -4.06635e-08 1.12375e-08 0 -0.013557 -0.00583959 0.0778224 
33 1 0.00052 0.0143667 0.000726673 -4.71808e-05 -3.62464e-05 1.00783e-05 0 -2.22706e-08 7.52253e-09 0 0.0129607 -0.000542363 -0.00994815 
83 1 0.00046 0.0156503 0.00128505 1.72248e-05 -6.20204e-05 7.13077e-06 0 -2.18896e-08 3.67006e-09 0 -0.0806777 -0.117283 0.0385366 
29 1 0.00052 0.015229 0.000426451 3.7231e-06 -2.49327e-05 6.56614e-06 0 -1.24212e-08 5.02419e-09 0 0.00442345 -0.00567364 0.0340213 
91 1 0.00044 0.0165533 0.00131713 3.54547e-05 -7.03619e-05 -1.87105e-05 0 -2.89361e-08 -7.80184e-09 0 -0.0729773 0.112393 0.151266 
53 1 0.0005 0.0161593 0.000503426 -4.85386e-05 -2.56298e-05 2.87216e-06 0 -1.23567e-08 1.13323e-09 0 0.127856 0.0154053 -0.0517301 
65 1 0.00048 0.0177989 0.00133136 -3.92382e-05 -7.70713e-05 -5.34998e-06 0 -3.88341e-08 -5.24363e-09 0 0.00641452 -0.0119925 0.139321 
4 1 0.00058 0.017162 0.000538973 -3.8784e-05 -1.54338e-05 -1.10855e-05 0 -1.12768e-08 -1.01092e-08 0 -0.00676245 -0.00745327 0.00438287 
5 1 0.00056 0.0182417 0.000485977 3.096e-05 -9.48573e-06 1.1992e-06 0 -5.75293e-09 -1.04848e-09 0 -0.00105066 0.00969234 0.00710055 
40 1 0.0005 0.0189229 0.00128037 6.72355e-06 -7.68444e-05 -2.55021e-06 0 -4.89609e-08 -3.40776e-09 0 0.00647629 -0.00280345 0.158154 
42 1 0.0005 0.0192498 0.000430196 -3.72737e-05 -1.48007e-06 8.56447e-06 0 3.56981e-10 4.323e-09 0 -0.000637179 -0.0133955 0.00146856 
18 1 0.00054 0.000913364 0.00230555 5.14548e-06 -0.000124606 1.58433e-05 0 -1.03712e-07 3.12481e-09 0 0.0400097 -0.0436639 0.160023 
50 1 0.0005 0.000390732 0.00316002 -4.9345e-05 -0.0001735 -3.2232e-05 0 -1.08936e-07 -2.66295e-08 0 -0.00835956 -0.0101669 -0.0256039 
182 1 0.00046 0.00207385 0.00294848 -3.17454e-05 -0.000151039 -3.21078e-05 0 -7.58546e-08 -1.98371e-08 0 0.0259456 0.0980058 0.0550091 
24 1 0.00052 0.00232746 0.00212071 -1.41959e-06 -9.55952e-05 -2.29882e-05 0 -6.89392e-08 -1.62274e-08 0 -0.0550177 0.0495211 0.0520962 
189 1 0.00044 0.00293059 0.00285127 3.50109e-05 -0.00013546 -1.90674e-05 0 -5.90158e-08 -1.02e-08 0 0.0470004 -0.110153 0.0130734 
66 1 0.00048 0.00325991 0.00201914 -3.46654e-05 -8.78957e-05 -3.47483e-07 0 -5.0943e-08 3.10535e-09 0 0.00765453 -0.0449955 0.0208225 
22 1 0.00054 0.00387165 0.00297736 -3.02218e-05 -0.000141011 -2.41376e-06 0 -1.16758e-07 4.24016e-10 0 -0.0386655 0.0911931 0.0850653 
70 1 0.00048 0.00413192 0.0020901 3.70504e-05 -8.25432e-05 5.37228e-06 0 -4.71022e-08 6.46466e-09 0 -0.00140962 0.0435614 0.00397279 
164 1 0.00048 0.00498923 0.0030031 3.07542e-05 -0.000140243 -2.98215e-05 0 -6.59781e-08 -2.104e-08 0 0.0538051 -0.00625526 0.13649 
69 1 0.00048 0.00497914 0.00196024 -2.23732e-05 -7.83558e-05 3.21047e-06 0 -4.36829e-08 5.67126e-09 0 -0.0246829 -0.0353069 0.0278502 
89 1 0.00044 0.00564898 0.00243798 -2.11247e-06 -0.000101568 -1.97185e-06 0 -3.72325e-08 -1.22965e-09 0 -0.0335712 -0.0133466 -0.0291578 
44 1 0.0005 0.0062414 0.00307342 -3.67063e-05 -0.000133484 -2.8996e-06 0 -6.59101e-08 -1.73691e-08 0 -0.0252289 -0.0345485 0.0676931 
80 1 0.00046 0.00642763 0.00213311 3.11799e-05 -0.000104 -1.65885e-06 0 -4.41756e-08 -5.99025e-09 0 -0.00627504 0.0258254 0.0423583 
93 1 0.00042 0.00699471 0.00270925 -2.75116e-05 -0.000119954 1.07076e-05 0 -3.59308e-08 -5.82672e-11 0 0.0682079 0.0333121 -0.0170162 
64 1 0.00048 0.00732133 0.00190975 4.80419e-05 -0.000103307 1.83937e-05 0 -5.21228e-08 -1.54963e-09 0 -0.0755471 -0.00103082 0.0177773 
90 1 0.00044 0.00773166 0.00291264 1.77683e-05 -0.000130308 3.19437e-06 0 -4.32355e-08 -7.46028e-09 0 0.0246219 -0.0112213 0.0339886 
1 1 0.00058 0.00829073 0.00219823 -3.97226e-05 -0.000116634 9.06689e-06 0 -9.78995e-08 -1.0201e-08 0 0.00431823 -0.0190221 0.00328452 
31 1 0.00052 0.0087694 0.00311833 4.55657e-05 -0.000128764 9.37356e-06 0 -8.33151e-08 -5.31633e-09 0 0.00408748 0.0423859 0.00565953 
82 1 0.00046 0.00925191 0.00230717 1.80717e-05 -0.00012148 -7.59519e-06 0 -5.23537e-08 -8.46858e-09 0 -0.043086 0.0194063 -0.0252861 
14 1 0.00054 0.00980947 0.00312822 -3.93388e-05 -0.000140128 -5.01645e-06 0 -9.83003e-08 -1.52675e-08 0 0.0291945 -0.0286532 0.0161656 
39 1 0.0005 0.0101401 0.0022242 2.40231e-05 -0.000112575 -1.58842e-05 0 -6.22008e-08 -1.47642e-08 0 -0.0118058 -0.0130786 0.0196408 
162 1 0.00048 0.0107434 0.00309856 2.716e-05 -0.000137329 -1.11481e-05 0 -7.13938e-08 -1.29481e-08 0 0.00677445 0.0244625 -0.00317986 
55 1 0.0005 0.0111005 0.00228235 -4.78087e-05 -0.000111173 -1.22097e-05 0 -6.27166e-08 -1.04308e-08 0 -0.020831 0.0094836 0.0382739 
27 1 0.00052 0.0116646 0.0030969 -4.25165e-05 -0.000141048 -9.12258e-06 0 -9.39027e-08 -1.10231e-08 0 0.0238769 -0.0159364 0.0119744 
45 1 0.0005 0.012063 0.00222619 -4.01526e-05 -0.000105332 -3.24133e-06 0 -6.16639e-08 -3.58581e-09 0 -0.0100047 -0.00337754 0.0274044 
26 1 0.00052 0.0126324 0.00312691 2.94528e-05 -0.00015135 -1.43375e-05 0 -1.02093e-07 -9.02309e-09 0 -0.0122849 0.0122911 0.00639804 
10 1 0.00056 0.0131111 0.00223019 4.21294e-05 -0.000106569 2.67807e-06 0 -8.91568e-08 3.27908e-09 0 0.00775514 -0.000758248 0.0726509 
36 1 0.00052 0.0136604 0.00314466 2.4953e-06 -0.00015989 -1.41126e-06 0 -1.06127e-07 -1.56099e-09 0 -0.0131494 0.00102448 0.0160724 
87 1 0.00044 0.0141724 0.00242031 2.35941e-05 -0.000133014 6.33226e-06 0 -5.17092e-08 2.58885e-09 0 0.0121988 0.00744968 0.0565701 
41 1 0.0005 0.0146374 0.00314125 -2.89305e-05 -0.000163705 1.46472e-05 0 -9.52479e-08 9.23961e-09 0 -0.0125741 -0.0108932 0.0209573 
57 1 0.0005 0.0150857 0.0022424 3.21045e-05 -0.000118076 2.86251e-05 0 -6.51814e-08 1.60724e-08 0 -0.00360722 -0.00808904 -0.010925 
21 1 0.00054 0.0156217 0.00308583 2.08022e-05 -0.000150376 4.54308e-05 0 -1.0969e-07 3.39747e-08 0 0.00678736 0.0136736 0.0589531 
76 1 0.00046 0.0160099 0.00208984 1.69816e-05 -0.000122001 3.98064e-05 0 -5.13237e-08 1.87776e-08 0 0.0367388 0.00285575 0.090181 
71 1 0.00048 0.0165088 0.00284188 -1.31875e-05 -0.000143879 3.78156e-05 0 -7.4001e-08 2.19337e-08 0 -0.0503233 -0.00798715 -0.0645586 
81 1 0.00046 0.0169336 0.00207778 -2.13541e-05 -0.000153067 1.16886e-05 0 -7.29349e-08 5.87179e-09 0 0.0909856 -0.0505689 0.0119059 
63 1 0.00048 0.0173632 0.00302254 -2.48084e-05 -0.000147137 -4.12054e-06 0 -7.72507e-08 -4.62003e-09 0 -0.0207452 -0.00856012 -0.0241 
16 1 0.00054 0.0178697 0.0022447 7.17441e-06 -0.00015336 -2.88084e-06 0 -1.17579e-07 -7.04198e-09 0 -0.00606985 0.0520865 0.00350856 
51 1 0.0005 0.0184494 0.0030296 -3.11061e-05 -0.000160716 -6.27095e-06 0 -9.82475e-08 -4.40898e-09 0 0.0429408 -0.00865705 -0.00296295 
37 1 0.00052 0.0188676 0.00220982 -6.697e-06 -0.000157379 -1.24169e-05 0 -1.12711e-07 -1.02518e-08 0 -0.00550638 -0.0553099 -0.00571952 
6 1 0.00056 0.0194396 0.00304014 1.88296e-05 -0.00016295 -2.03883e-05 0 -1.41678e-07 -2.2872e-08 0 -0.0237158 0.00704087 0.0101828 
13 1 0.00054 0.0198579 0.00217974 2.40593e-05 -0.000154604 -3.51819e-05 0 -1.28764e-07 -3.45332e-08 0 -0.00616935 0.0546193 -0.023417 
11 1 0.00056 0.00132556 0.00346774 4.11056e-07 -0.00017291 -3.80256e-05 0 -1.51481e-07 -4.64201e-08 0 -0.101279 -0.0282231 0.00155001 
179 1 0.00046 0.00155129 0.00438142 -3.43082e-05 -0.000208622 -3.13269e-05 0 -8.64726e-08 -2.53009e-08 0 0.104859 -0.0621653 0.0685519 
160 1 0.00048 0.000527434 0.00405703 4.11872e-05 -0.000195043 -4.71735e-05 0 -9.83015e-08 -3.09729e-08 0 0.0248358 0.101075 0.0770893 
62 1 0.00048 0.00226138 0.00383411 4.14547e-05 -0.000180762 -2.53985e-05 0 -9.63471e-08 -2.99452e-08 0 -0.0157215 -0.00860186 0.0040417 
171 1 0.00048 0.00263751 0.00468328 2.79416e-05 -0.000228272 -7.75157e-06 0 -1.03047e-07 -2.58725e-08 0 -0.0789044 -0.251026 0.102443 
178 1 0.00046 0.00314492 0.00368858 -1.57031e-06 -0.000176698 -1.50976e-05 0 -8.70955e-08 -1.35675e-08 0 -0.066992 0.0205982 0.04402 
163 1 0.00048 0.00360997 0.0047011 5.32063e-06 -0.000233155 -2.66113e-05 0 -1.15545e-07 -1.13217e-08 0 -0.00233682 -0.0853498 0.0790188 
155 1 0.0005 0.00402802 0.00391628 -2.6529e-06 -0.0001941 -4.76365e-06 0 -1.2768e-07 -2.33267e-09 0 0.0557078 -0.0190308 0.00239771 
103 1 0.00056 0.00459627 0.00494718 -3.58607e-05 -0.000238398 -1.51669e-05 0 -1.81856e-07 -3.60324e-08 0 0.00757021 0.0728555 0.0150353 
108 1 0.00054 0.00500519 0.00397258 -2.13321e-05 -0.000207934 -1.78329e-05 0 -1.65186e-07 -3.32065e-08 0 -0.0477977 0.0161035 0.00296397 
106 1 0.00056 0.00567188 0.00479156 -4.97251e-05 -0.000228202 -1.10256e-05 0 -1.75501e-07 -5.21714e-08 0 0.000999323 -0.0749251 0.0254706 
187 1 0.00046 0.00598023 0.0039042 -2.41619e-05 -0.00019456 -9.00495e-06 0 -8.57403e-08 -2.46716e-08 0 0.0347618 -0.00611872 0.0454192 
116 1 0.00054 0.00668484 0.00459877 -2.57589e-05 -0.000212082 -7.88513e-06 0 -1.41578e-07 -3.48006e-08 0 0.0483987 0.0687933 0.00425503 
138 1 0.0005 0.00702789 0.00365583 -4.22335e-05 -0.000174071 1.91728e-06 0 -8.81843e-08 -1.91912e-08 0 -0.0657762 -0.0547566 0.0174193 
95 1 0.00058 0.00775393 0.00462568 4.30556e-05 -0.000206739 -2.55257e-07 0 -1.69427e-07 -2.47954e-08 0 0.00789077 -0.0543258 0.0406139 
61 1 0.00048 0.00796471 0.00368214 4.42331e-05 -0.000159601 4.44354e-06 0 -7.21716e-08 -8.83472e-09 0 -0.00455879 0.0706719 0.0145247 
153 1 0.0005 0.00878138 0.00405885 -4.39636e-05 -0.00016054 1.99773e-05 0 -8.50364e-08 1.23012e-09 0 0.000748577 -0.0737179 0.0528103 
38 1 0.0005 0.00980571 0.0048682 4.93343e-05 -0.000184825 4.54174e-05 0 -1.04839e-07 8.03188e-09 0 0.0507614 -0.0934323 0.132865 
75 1 0.00046 0.00961235 0.00399987 4.05756e-05 -0.00014255 1.70883e-05 0 -6.34888e-08 -3.2309e-09 0 -0.0552307 0.0908827 -0.0486416 
169 1 0.00048 0.0087167 0.00490588 -1.72291e-05 -0.00021825 2.26479e-05 0 -9.69111e-08 2.27437e-09 0 -0.00552211 0.0675394 0.0435842 
191 1 0.00044 0.0104274 0.00387999 -3.72271e-05 -0.000145385 -1.2179e-05 0 -5.73761e-08 -8.86732e-09 0 0.0187942 -0.0928261 0.0141634 
166 1 0.00048 0.010781 0.00466936 4.50596e-05 -0.000255908 6.85313e-06 0 -1.12223e-07 -7.99363e-09 0 -0.0284997 0.0579882 0.238595 
88 1 0.00044 0.011287 0.00394143 1.35023e-05 -0.00015398 1.78891e-05 0 -6.08797e-08 -5.33147e-09 0 -0.0802921 0.0988557 -0.0108935 
152 1 0.0005 0.0119441 0.00475921 3.81834e-05 -0.000215866 -4.72462e-05 0 -1.12587e-07 -2.19689e-08 0 0.0192361 -0.0382697 0.0829171 
85 1 0.00044 0.0121471 0.00389566 3.14585e-06 -0.000161503 -2.22053e-05 0 -6.31263e-08 -5.92254e-09 0 -0.0175585 0.0296126 0.0208118 
151 1 0.0005 0.0129143 0.00493062 -2.4127e-05 -0.000228022 -1.99397e-05 0 -1.24427e-07 -1.00308e-08 0 -0.0293704 0.0359553 0.0401417 
99 1 0.00056 0.0131378 0.00399641 1.0814e-05 -0.000182247 -1.22712e-05 0 -1.47639e-07 -9.67742e-09 0 0.0171523 -0.00769203 0.0359334 
174 1 0.00046 0.0137743 0.00483831 -4.51984e-05 -0.000223413 -2.40081e-06 0 -9.64577e-08 -1.57067e-09 0 -0.0137885 -0.0329343 0.0247716 
110 1 0.00054 0.0141946 0.00402778 1.00341e-06 -0.000193669 5.34862e-06 0 -1.41542e-07 3.65654e-09 0 0.0178419 0.00862313 0.0269605 
126 1 0.00052 0.0147188 0.00489057 6.87793e-06 -0.000225546 7.52688e-06 0 -1.4012e-07 7.47916e-09 0 0.00730828 0.0323475 0.0199052 
25 1 0.00052 0.0151634 0.00395714 1.87838e-05 -0.000196521 2.45749e-05 0 -1.30087e-07 1.72086e-08 0 -0.00809175 -0.00885441 0.0298841 
47 1 0.0005 0.0160898 0.00415441 4.33922e-05 -0.000214423 1.6606e-05 0 -1.28251e-07 1.17693e-08 0 -0.0402903 -0.0102355 -0.0321164 
79 1 0.00046 0.0167875 0.00468951 2.18197e-05 -0.000217685 -1.6322e-06 0 -9.91684e-08 -3.13276e-09 0 -0.0280087 -0.03693 0.0232266 
56 1 0.0005 0.0170393 0.00386948 -2.12721e-05 -0.000221184 -2.09312e-05 0 -1.36974e-07 -1.78221e-08 0 0.0290159 0.0303531 -0.0503172 
77 1 0.00046 0.0176717 0.00460933 6.56493e-06 -0.000230149 -1.17969e-05 0 -1.06427e-07 -9.25966e-09 0 0.0238515 0.0421792 -0.0163224 
130 1 0.00052 0.0179706 0.0037783 9.36883e-06 -0.00020075 -1.38523e-05 0 -1.3617e-07 -1.34157e-08 0 -0.0158366 -0.0346212 0.0705778 
2 1 0.00058 0.0187067 0.00453987 3.03201e-05 -0.000232299 -2.07687e-05 0 -2.09018e-07 -1.89038e-08 0 -0.05129 -0.0288601 -0.0208561 
73 1 0.00046 0.0194173 0.0039266 1.43967e-05 -0.000209793 -2.23322e-05 0 -9.55477e-08 -1.17872e-08 0 0.02855 0.066858 0.0735684 
23 1 0.00054 0.0197622 0.00479104 -2.66714e-05 -0.000235693 -3.3761e-05 0 -1.64954e-07 -2.70844e-08 0 0.00374925 0.016416 -0.0119454 
3 1 0.00058 0.000803848 0.00500124 1.15215e-05 -0.000238362 -3.92816e-05 0 -1.946e-07 -5.30482e-08 0 -0.000505735 -0.0156416 0.000317117 
135 1 0.0005 0.00121093 0.00595204 1.46596e-05 -0.000288306 -3.65993e-05 0 -1.29931e-07 -3.61441e-08 0 0.0368022 0.118554 0.0855126 
197 1 0.00042 0.00034069 0.00650327 -3.99128e-05 -0.000330622 -1.31924e-05 0 -9.1299e-08 -1.30228e-08 0 0.00434958 0.00405554 0.0825651 
58 1 0.0005 9.82073e-05 0.00571808 -3.26099e-05 -0.0002628 -3.97628e-05 0 -1.31868e-07 -2.99289e-08 0 0.0052351 0.0170948 0.0643903 
139 1 0.0005 0.00182522 0.0052185 -7.07934e-06 -0.000253034 -2.08993e-05 0 -1.2558e-07 -3.2425e-08 0 -0.123335 -0.0183932 0.0236831 
109 1 0.00054 0.00214798 0.00645984 -2.06108e-05 -0.00031484 -2.29383e-05 0 -1.86793e-07 -3.77396e-08 0 -0.0404559 0.0121051 0.0401977 
156 1 0.0005 0.00264385 0.00563288 3.54227e-05 -0.000279044 -1.32907e-05 0 -1.3866e-07 -2.65828e-08 0 0.0532848 -0.0159386 0.0097255 
175 1 0.00046 0.00314284 0.00641167 -2.96496e-05 -0.000301093 -1.76831e-05 0 -1.15842e-07 -2.07066e-08 0 -0.0304128 0.0338293 0.0311011 
114 1 0.00054 0.00359699 0.00562895 1.90715e-05 -0.000276877 -1.66979e-05 0 -1.75144e-07 -2.27864e-08 0 0.00128561 0.0159295 0.00180664 
185 1 0.00046 0.00445635 0.00591257 1.72497e-05 -0.000272177 -1.60931e-05 0 -1.06408e-07 -2.12278e-08 0 -0.0195531 -0.0266659 0.00969162 
102 1 0.00056 0.00536977 0.00576123 2.50127e-05 -0.00026619 -1.25643e-05 0 -1.90785e-07 -5.88024e-08 0 0.0124578 0.0216339 0.0315936 
192 1 0.00044 0.00596559 0.00650198 -4.27825e-05 -0.000296103 -9.28483e-06 0 -9.94766e-08 -2.6361e-08 0 0.00945977 0.0149721 -0.00620727 
188 1 0.00044 0.00630447 0.00553453 2.43943e-05 -0.000251136 -1.28137e-05 0 -8.85758e-08 -2.59049e-08 0 -0.0950903 -0.0134941 -0.0304256 
149 1 0.0005 0.00680883 0.00637477 -3.07296e-05 -0.000290637 -1.36689e-05 0 -1.43468e-07 -3.10688e-08 0 7.27521e-05 -0.0222145 0.0168671 
131 1 0.00052 0.00721516 0.00549566 -2.4969e-05 -0.000250671 -1.3328e-05 0 -1.42573e-07 -2.70109e-08 0 0.00882004 0.0143854 0.044342 
237 1 0.00052 0.00771617 0.00633491 1.47771e-05 -0.000285123 1.22276e-06 0 -1.57918e-07 -1.76817e-08 0 0.0157457 0.0273678 0.0277267 
159 1 0.00048 0.00818858 0.00555876 -2.62417e-05 -0.000256113 9.78488e-06 0 -1.11854e-07 -8.26547e-09 0 -0.0400109 -0.00828479 0.0420651 
125 1 0.00052 0.00865093 0.00633063 -3.20614e-05 -0.000278886 9.90756e-06 0 -1.56081e-07 1.16294e-09 0 0.0150854 -0.0305745 -0.00982343 
136 1 0.0005 0.00926848 0.00565822 -4.70071e-05 -0.000262156 2.26876e-05 0 -1.29012e-07 7.15595e-09 0 0.0352601 -0.0257038 0.0466792 
170 1 0.00048 0.0101279 0.00574302 4.476e-05 -0.000274217 8.1958e-05 0 -1.18173e-07 1.3715e-08 0 -0.081988 0.0228566 0.0806635 
167 1 0.00048 0.0109428 0.00555111 -5.06646e-06 -0.000284296 1.85629e-05 0 -1.24347e-07 -6.18116e-09 0 0.0382603 -0.0145101 -0.210291 
123 1 0.00052 0.0113983 0.00651312 -4.22073e-05 -0.000286359 -2.88883e-05 0 -1.6419e-07 -1.59962e-08 0 -0.000726071 0.0412724 -0.0758852 
168 1 0.00048 0.0117701 0.00567029 2.60985e-05 -0.000277268 -5.69852e-05 0 -1.2527e-07 -2.33501e-08 0 -0.0186782 0.0194526 0.0387856 
150 1 0.0005 0.012349 0.00640774 1.83575e-05 -0.000288731 -4.43295e-05 0 -1.4685e-07 -2.09031e-08 0 -0.00718194 -0.0421642 0.016691 
196 1 0.00042 0.0125324 0.00560056 -2.28987e-05 -0.000265119 -3.63869e-05 0 -8.27585e-08 -1.07734e-08 0 0.0292764 -0.0298195 0.0357986 
157 1 0.0005 0.0132293 0.00609497 2.90979e-05 -0.000278381 -2.30208e-05 0 -1.45316e-07 -1.75627e-08 0 -0.00452252 0.0429236 0.0292384 
96 1 0.00058 0.0141682 0.00577225 4.28851e-05 -0.000257826 -4.86176e-06 0 -2.19699e-07 -5.17767e-09 0 -0.00859654 -0.0327749 0.0227963 
115 1 0.00054 0.0151913 0.00589409 -1.46308e-05 -0.000261288 -1.70102e-06 0 -1.76312e-07 8.63549e-09 0 -0.0534496 0.0300604 0.00850303 
143 1 0.0005 0.0156894 0.00502114 -7.56683e-06 -0.000228299 1.63917e-05 0 -1.29379e-07 1.1953e-08 0 0.0567441 -0.0261482 0.0355405 
141 1 0.0005 0.0160692 0.00623861 -4.83823e-05 -0.000266332 1.24324e-05 0 -1.36285e-07 4.58402e-09 0 -0.00265628 -0.0577767 0.0633321 
146 1 0.0005 0.0165273 0.00551888 2.89194e-05 -0.000233942 1.0733e-05 0 -1.31538e-07 2.36493e-09 0 0.00408788 0.0650901 -0.00851752 
195 1 0.00044 0.0170141 0.00631549 3.21564e-05 -0.000679563 0.000234877 0 -1.56262e-07 3.57881e-08 0 -15.2052 -25.0246 1.04099 
190 1 0.00044 0.017329 0.0053766 -4.85919e-05 -0.000226509 -4.03601e-06 0 -8.84525e-08 -4.33112e-09 0 -0.0294733 -0.0652132 -0.0155137 
101 1 0.00056 0.0180906 0.006283 -1.12464e-05 -0.000291189 -1.2543e-05 0 -2.02413e-07 -1.49229e-08 0 -0.0379009 -0.111881 0.111595 
147 1 0.0005 0.0181532 0.00535652 3.12852e-05 -0.000225634 -1.47088e-05 0 -1.31365e-07 -1.28302e-08 0 0.0444517 0.0596667 0.00159795 
172 1 0.00048 0.0193062 0.0063618 2.46256e-05 -0.000302405 -2.53172e-05 0 -1.51463e-07 -1.8183e-09 0 -0.10694 -0.198245 0.165117 
144 1 0.0005 0.0190684 0.00549271 -4.44854e-05 -0.000223081 -2.98717e-05 0 -1.30599e-07 -1.11575e-08 0 0.0317609 -0.0502073 -0.0141181 
194 1 0.00044 0.00128661 0.00681554 -2.73404e-05 -0.000339847 -3.0799e-05 0 -1.03867e-07 -2.20971e-08 0 -0.0215058 0.0200848 0.00366826 
107 1 0.00054 0.00116461 0.00795972 -3.38667e-05 -0.000356275 -1.84004e-05 0 -1.89102e-07 -3.11419e-08 0 -0.0120533 -0.0219007 -0.00462393 
193 1 0.00044 0.000623242 0.00726046 -4.2113e-05 -0.000354713 -1.69334e-05 0 -1.05303e-07 -1.72153e-08 0 -0.0115709 -0.00635196 -0.0066748 
211 1 0.00056 0.000133153 0.00807647 1.49646e-05 -0.000359681 -1.1714e-05 0 -2.05099e-07 -2.4814e-08 0 0.00600524 0.0248753 0.00691953 
137 1 0.0005 0.00192577 0.00742638 7.74856e-06 -0.000346727 -2.53018e-05 0 -1.54666e-07 -2.91225e-08 0 0.0376599 0.00755589 0.0133712 
177 1 0.00046 0.00207904 0.00829938 5.5329e-07 -0.00036199 -2.10679e-05 0 -1.19735e-07 -1.87747e-08 0 -0.0329867 0.00308187 0.0120734 
118 1 0.00054 0.00285615 0.00725663 3.67542e-05 -0.000336303 -1.71849e-05 0 -1.96792e-07 -3.5421e-08 0 0.0175375 -0.0177741 0.0204542 
273 1 0.00048 0.0029516 0.00820022 1.2865e-05 -0.000357554 -1.4467e-05 0 -1.39411e-07 -2.33365e-08 0 -0.0125896 0.0067344 0.0181779 
132 1 0.00052 0.00376911 0.00772324 -4.70278e-05 -0.000344722 -1.56027e-05 0 -1.81024e-07 -3.62206e-08 0 -0.0280003 0.00790601 0.00256671 
127 1 0.00052 0.00401821 0.00673752 -1.13161e-05 -0.000308564 -9.22603e-06 0 -1.69972e-07 -2.61376e-08 0 0.0356296 -0.0104791 0.035158 
142 1 0.0005 0.00474353 0.00768286 1.72877e-05 -0.000341139 -1.92368e-05 0 -1.59162e-07 -4.58187e-08 0 0.00841353 -0.00226498 0.0092697 
97 1 0.00058 0.00507387 0.00677446 -4.33679e-05 -0.00030848 -2.12614e-05 0 -2.36529e-07 -7.62204e-08 0 -0.0117427 -0.00177245 0.0431608 
129 1 0.00052 0.00570941 0.00765941 7.98975e-06 -0.000334928 -1.21494e-05 0 -1.75995e-07 -4.64921e-08 0 -0.000411762 -0.00328272 0.00909988 
145 1 0.0005 0.00648465 0.00722425 -4.89198e-05 -0.000315577 -1.17253e-05 0 -1.50232e-07 -3.46741e-08 0 0.00486986 -0.000364079 0.0195878 
117 1 0.00054 0.00706368 0.00808593 -1.8846e-05 -0.000351986 -7.23033e-06 0 -2.00201e-07 -2.10109e-08 0 0.0134957 0.0136593 0.0312815 
158 1 0.00048 0.00738164 0.00719503 -2.80691e-05 -0.000317793 -4.09003e-06 0 -1.36398e-07 -1.96786e-08 0 -0.0246484 0.00332393 0.0208189 
303 1 0.00042 0.00794536 0.00787466 -4.34141e-05 -0.000346317 7.56251e-06 0 -9.47463e-08 -8.28338e-09 0 0.00899817 -0.0215724 0.0217309 
184 1 0.00046 0.00826152 0.00712165 2.59556e-05 -0.000312176 1.30699e-05 0 -1.18834e-07 -5.45126e-09 0 0.00319827 -0.00434167 0.0509194 
111 1 0.00054 0.00886658 0.00784458 -3.81694e-05 -0.000356617 3.1412e-05 0 -1.97445e-07 -8.0548e-09 0 0.00187193 0.0144237 0.0406061 
210 1 0.00056 0.00943467 0.00692021 -2.37608e-06 -0.000309321 4.17192e-05 0 -2.00796e-07 1.27602e-08 0 -0.0120756 0.032348 0.134465 
233 1 0.00052 0.00985793 0.00782526 -1.57412e-05 -0.000380447 3.37728e-05 0 -1.74826e-07 3.45516e-09 0 0.023712 -0.0171686 -0.027042 
100 1 0.00056 0.0104228 0.00667234 -1.47472e-05 -0.000277394 8.22694e-05 0 -1.97924e-07 1.71278e-08 0 0.061802 -0.0472535 -0.0780407 
213 1 0.00056 0.0107667 0.00823666 4.979e-05 -0.000380437 -3.25824e-05 0 -2.18794e-07 -9.98747e-09 0 -0.0297125 0.0115512 -0.0655977 
199 1 0.00042 0.0110363 0.00735894 2.22644e-05 -0.000122475 1.26686e-05 0 -6.52649e-08 -3.53866e-11 0 -0.0748925 0.0872703 -0.323465 
120 1 0.00052 0.0117449 0.00821323 -4.55597e-05 -0.000366445 -5.19448e-05 0 -1.70533e-07 -2.06218e-08 0 -0.0146021 -0.0132657 0.0334166 
112 1 0.00054 0.0120575 0.00730344 -4.5975e-05 -0.000314924 -4.57459e-05 0 -1.82609e-07 -2.62465e-08 0 0.0227254 -0.00757555 0.059059 
161 1 0.00048 0.0128774 0.00785411 4.23607e-05 -0.000344508 -2.89004e-05 0 -1.30787e-07 -1.42962e-08 0 -0.00996787 0.00712266 0.0174063 
186 1 0.00046 0.0130395 0.00699465 4.20701e-05 -0.000312265 -2.78049e-05 0 -1.13324e-07 -1.37597e-08 0 -0.00500704 0.0305622 0.043201 
104 1 0.00056 0.0138707 0.00781737 -5.04024e-06 -0.000340482 -1.70399e-05 0 -2.05064e-07 -1.25458e-08 0 -0.0146326 -0.000314721 0.0311048 
148 1 0.0005 0.013923 0.0068006 1.64328e-05 -0.000309258 -1.91274e-05 0 -1.42468e-07 -8.0963e-09 0 0.0167706 -0.0278915 -0.00367456 
154 1 0.0005 0.0148742 0.00792284 -1.6913e-05 -0.000345268 -6.10399e-06 0 -1.44865e-07 -1.38664e-09 0 -0.0326953 -0.00878768 0.0147468 
98 1 0.00058 0.0149264 0.0069127 -4.21217e-05 -0.000308195 -9.39275e-06 0 -2.23527e-07 5.61289e-09 0 0.0309385 0.0267092 0.0413737 
128 1 0.00052 0.0158431 0.00811075 -3.94419e-05 -0.000351515 3.65488e-06 0 -1.63414e-07 1.58864e-10 0 -0.00794934 0.00727107 0.0256105 
121 1 0.00052 0.015935 0.00713245 -1.21974e-05 -0.000322024 8.21653e-06 0 -1.63358e-07 3.02655e-09 0 0.0101947 -0.0163331 0.0318514 
124 1 0.00052 0.0167043 0.00770096 -3.70828e-05 -0.000341577 5.93279e-06 0 -1.62659e-07 7.56886e-10 0 -0.0239613 4.4862e-05 -0.0147758 
119 1 0.00054 0.0175093 0.00715134 -3.33274e-05 -0.00034415 -1.2008e-05 0 -1.85619e-07 -6.48032e-09 0 0.198873 -0.1114 -0.0106905 
165 1 0.00048 0.0181777 0.00805565 -3.83096e-05 -0.000362214 1.2032e-06 0 -1.26705e-07 -8.38909e-09 0 -0.0483999 -0.0620055 -0.00240087 
113 1 0.00054 0.0185262 0.00717444 -2.02095e-05 -0.000352087 2.25912e-06 0 -1.86321e-07 -1.2073e-08 0 0.0332366 0.102175 0.0181024 
173 1 0.00048 0.0191986 0.00778163 -4.84051e-05 -0.000358278 -2.02671e-06 0 -1.30623e-07 -7.99302e-09 0 0.0340781 -0.031571 -0.00603495 
140 1 0.0005 0.0197783 0.00713006 -3.46879e-05 -0.0003589 -9.86748e-06 0 -1.5698e-07 -1.39934e-08 0 -0.00713167 0.00183868 -0.0158285 
215 1 0.00054 0.00162333 0.00915057 2.66777e-05 -0.000375117 -1.54065e-05 0 -1.82699e-07 -2.2361e-08 0 0.0139812 0.015054 -0.00172084 
301 1 0.00042 0.000826314 0.00875864 -3.96098e-06 -0.000370025 -1.27552e-05 0 -8.48142e-08 -1.07132e-08 0 0.0254261 0.00143203 0.012648 
248 1 0.0005 0.000757206 0.00962916 -1.72888e-05 -0.000379871 -1.05116e-05 0 -1.38087e-07 -1.50563e-08 0 -0.0164528 -0.0127091 -0.00265111 
229 1 0.00052 0.00234431 0.00997664 2.41907e-05 -0.000388474 -1.41206e-05 0 -1.56399e-07 -1.76061e-08 0 -0.00690225 0.00599851 0.00297708 
236 1 0.00052 0.0026058 0.0090653 4.87165e-05 -0.000374072 -1.60291e-05 0 -1.68244e-07 -2.52184e-08 0 0.0130913 -0.0185366 0.0114983 
291 1 0.00046 0.00325496 0.00972712 7.50784e-06 -0.000383967 -1.06292e-05 0 -1.10877e-07 -2.01326e-08 0 -0.0260604 0.00206345 0.0204437 
286 1 0.00046 0.00350186 0.00889136 -7.08428e-06 -0.000367853 -1.3781e-05 0 -1.18786e-07 -2.38469e-08 0 0.0239502 0.0149103 -0.00215177 
234 1 0.00052 0.00421655 0.00954447 6.12283e-06 -0.000380735 -1.29429e-05 0 -1.63343e-07 -3.81804e-08 0 -0.00692234 -0.00512648 0.0244356 
201 1 0.00058 0.00438091 0.00858048 1.74262e-06 -0.000358357 -1.56472e-05 0 -2.43221e-07 -6.19045e-08 0 0.00899349 -0.0237856 0.0119388 
265 1 0.00048 0.00519212 0.00943735 -2.81666e-05 -0.000379411 -6.30688e-06 0 -1.30896e-07 -3.10101e-08 0 -0.00499936 0.00749463 0.0128246 
134 1 0.00052 0.00537663 0.00853071 -1.04316e-05 -0.000356964 -8.23745e-06 0 -1.76728e-07 -4.58985e-08 0 -0.00507045 0.0259433 0.0195735 
247 1 0.0005 0.00613903 0.00937646 9.49774e-06 -0.000378111 -2.26389e-06 0 -1.50454e-07 -2.83864e-08 0 0.00452028 -0.00819747 0.0135937 
198 1 0.00042 0.00625713 0.00848858 -4.45245e-05 -0.000361624 -8.61878e-06 0 -9.19842e-08 -1.45567e-08 0 0.000837236 -0.0305262 -0.0136219 
264 1 0.00048 0.0069697 0.00902629 3.54547e-06 -0.000374415 -8.40519e-07 0 -1.35298e-07 -1.84351e-08 0 -0.0153514 0.0118609 0.00667655 
232 1 0.00052 0.00743251 0.00986902 -2.7703e-05 -0.000390208 1.0979e-05 0 -1.65186e-07 -2.31009e-08 0 0.0123841 -0.0062261 0.0190814 
176 1 0.00046 0.00781393 0.00871349 -4.92713e-05 -0.000372491 8.62816e-06 0 -1.1966e-07 -1.1841e-08 0 -0.00566746 -0.00481678 0.0252658 
274 1 0.00048 0.00822883 0.0095109 1.26179e-05 -0.000385379 1.36843e-05 0 -1.34946e-07 -1.19891e-08 0 0.00422006 -0.00410008 -0.00411065 
244 1 0.0005 0.00873376 0.00878834 4.93873e-05 -0.000379739 1.90022e-05 0 -1.52948e-07 -7.3423e-09 0 -0.00352248 0.00217742 0.00820884 
228 1 0.00052 0.00912857 0.00970253 -4.18982e-05 -0.000389456 1.09084e-05 0 -1.66699e-07 -7.7265e-09 0 0.00876616 0.0108356 0.0138439 
203 1 0.00058 0.00974433 0.00885932 -9.33208e-06 -0.000377033 1.40521e-05 0 -2.4242e-07 -1.15216e-08 0 -0.0177877 -0.00334741 -0.0106796 
225 1 0.00054 0.0106964 0.00929032 -3.72943e-05 -0.000369492 -1.94025e-05 0 -1.87119e-07 -9.27786e-09 0 0.0268246 0.00950363 -0.0118281 
284 1 0.00046 0.0114027 0.00989502 1.32074e-05 -0.000385027 -2.817e-05 0 -1.09584e-07 -5.28737e-09 0 -0.0127875 -0.00194812 0.0109723 
281 1 0.00046 0.0116403 0.00908206 3.24679e-05 -0.000380277 -3.76174e-05 0 -1.16222e-07 -8.80668e-09 0 0.0156851 -0.0162802 -0.00739621 