ITEM: TIMESTEP
400880000
ITEM: NUMBER OF ATOMS
400
ITEM: BOX BOUNDS pp ff ff
0 0.02
0 0.04
-0.00065 0.00065
ITEM: ATOMS id type radius x y z vx vy vz fx fy fz omegax omegay omegaz 
74 1 0.00046 0.00132429 0.000443469 3.36586e-05 -2.70145e-05 -7.41954e-06 0 2.89671e-09 7.89152e-09 0 -0.0361331 -0.181894 0.0367327 
35 1 0.00052 0.000908687 0.00128633 -1.66342e-05 -3.56243e-05 1.0594e-05 0 9.47731e-09 2.12747e-08 0 0.109045 0.0684833 -0.0436536 
7 1 0.00056 0.000243009 0.000443164 -3.64628e-05 -2.30204e-06 4.74865e-06 0 1.2085e-09 2.45617e-08 0 -0.0105112 -0.0448715 0.0032852 
43 1 0.0005 0.00183162 0.00127747 5.09221e-06 -3.6237e-05 -1.58145e-05 0 1.38835e-08 8.23929e-09 0 -0.0387747 -0.0738422 0.00703944 
30 1 0.00052 0.0022667 0.000435582 -1.24497e-05 -1.78782e-05 -3.1457e-06 0 4.6323e-09 2.51737e-09 0 0.00124376 0.148087 0.0191135 
67 1 0.00048 0.00273798 0.00128761 4.63423e-05 -3.56458e-05 -3.42166e-06 0 1.27996e-08 5.12055e-10 0 0.0538366 0.0755476 0.0288767 
17 1 0.00054 0.00324578 0.000515976 4.67087e-05 -1.68917e-05 2.42646e-06 0 4.87009e-09 4.6676e-09 0 0.00377617 -0.137771 0.0103847 
86 1 0.00044 0.0037422 0.00129196 -1.5404e-05 -3.70263e-05 8.00988e-06 0 1.76291e-08 2.69609e-09 0 -0.124866 -0.00474408 0.0249334 
84 1 0.00044 0.00460378 0.00119568 -2.0603e-05 -3.14897e-05 2.43336e-06 0 -1.91172e-08 2.24873e-09 0 0.094567 0.0169534 0.018308 
54 1 0.0005 0.00417248 0.000417348 3.04549e-05 -1.19924e-05 2.20954e-07 0 3.33622e-09 -6.76388e-10 0 0.00182912 0.142776 0.00414473 
46 1 0.0005 0.00511557 0.000469823 4.04467e-05 -1.67333e-05 1.16134e-06 0 8.40834e-10 -9.02185e-09 0 -0.00100371 -0.13603 0.0149299 
15 1 0.00054 0.00566761 0.00130833 -2.65834e-05 -3.6086e-05 1.03613e-06 0 -5.79862e-08 -3.55501e-08 0 -0.0580597 0.0344147 0.00534608 
72 1 0.00048 0.00663925 0.00128974 -2.02466e-06 -4.17548e-05 7.03996e-06 0 -4.13539e-08 5.68183e-08 0 0.0609154 -0.0337999 0.0470307 
78 1 0.00046 0.00602138 0.000418931 -1.20537e-05 -1.3728e-05 3.47639e-06 0 -7.81198e-10 -1.7818e-09 0 -0.00275945 0.147784 0.0149213 
52 1 0.0005 0.00693119 0.000445513 3.91278e-05 -9.95768e-06 6.5335e-06 0 -5.6571e-09 3.20462e-08 0 0.00063783 -0.134831 0.0111389 
8 1 0.00056 0.0082418 0.00117625 -1.82355e-06 -4.45003e-05 3.63268e-06 0 5.57505e-08 5.4408e-08 0 0.037661 -0.0464324 0.0901509 
92 1 0.00042 0.00779485 0.000364309 3.24564e-05 -2.49503e-06 -3.70382e-06 0 4.87977e-09 1.71642e-08 0 0.000182431 0.162288 -0.0168409 
60 1 0.00048 0.0087669 0.000398808 -3.28708e-05 -1.90144e-06 1.12026e-05 0 6.57657e-09 1.43252e-08 0 0.00232901 -0.0227637 -0.0106971 
32 1 0.00052 0.00929987 0.00138466 3.24568e-05 -6.07412e-05 -1.29706e-05 0 2.25225e-08 1.08494e-07 0 0.0393969 -0.0876442 0.0916372 
20 1 0.00054 0.00975709 0.000490924 -2.76781e-05 -1.10859e-05 6.26821e-07 0 -1.66335e-08 5.36553e-08 0 -0.00585361 0.0254494 0.00867671 
28 1 0.00052 0.0103843 0.00131147 -4.92787e-05 -4.44141e-05 -8.03885e-06 0 -5.74071e-09 7.3564e-08 0 0.0243767 -0.0176143 0.0371127 
34 1 0.00052 0.0113759 0.001392 -4.32784e-06 -4.6797e-05 3.36841e-06 0 1.74868e-09 6.74407e-08 0 -0.0241173 0.0213879 0.0289189 
59 1 0.00048 0.0107646 0.000443751 -3.96086e-06 -1.41792e-05 -2.36254e-06 0 -1.16663e-08 2.13648e-08 0 0.000394938 -0.0405719 0.0202172 
9 1 0.00056 0.0117792 0.00048559 -1.32742e-05 -1.70416e-05 5.43748e-06 0 -2.84143e-08 3.24742e-08 0 -0.00387383 0.0400079 0.0206534 
19 1 0.00054 0.0124043 0.00132994 1.95463e-05 -3.45433e-05 1.48379e-05 0 -3.91913e-08 3.77289e-08 0 0.0278156 -0.0229696 0.0104411 
68 1 0.00048 0.0127805 0.00044281 1.3181e-05 -1.67664e-05 6.73975e-06 0 -2.20544e-08 1.03096e-08 0 -0.000852595 -0.0466377 0.0070386 
12 1 0.00056 0.0134323 0.0012262 3.75182e-05 -2.81198e-05 4.66033e-06 0 -5.16808e-08 -1.0277e-08 0 -0.004034 0.0285893 -0.00504678 
94 1 0.00042 0.0136131 0.000330044 1.89547e-05 -1.47843e-05 5.34382e-06 0 -1.59024e-08 -3.99709e-09 0 -0.00666037 0.0568084 0.0239977 
48 1 0.0005 0.0143498 0.00162016 1.99029e-05 -5.02193e-05 1.231e-05 0 -2.71119e-08 -5.54487e-08 0 -0.00790133 -0.0391326 0.0704085 
33 1 0.00052 0.0143637 0.000727425 -4.71808e-05 -1.84823e-05 5.69209e-06 0 -3.94883e-08 -3.19791e-08 0 0.0082555 -0.0466778 -0.00937815 
83 1 0.00046 0.0156448 0.00128571 1.72248e-05 -5.37235e-05 8.74249e-06 0 5.5305e-08 2.51369e-08 0 -0.0818886 -0.196989 0.0576926 
29 1 0.00052 0.0152269 0.000426934 3.7231e-06 -1.41133e-05 3.69263e-06 0 -1.59696e-08 6.57698e-09 0 0.00153676 0.0503203 0.0227964 
91 1 0.00044 0.016547 0.00131559 3.54547e-05 -5.11305e-05 -6.26792e-06 0 1.46857e-08 6.14394e-08 0 -0.180802 0.178606 0.126264 
53 1 0.0005 0.0161571 0.000503657 -4.85386e-05 -1.48742e-05 7.05067e-06 0 3.84186e-09 5.40915e-08 0 0.217427 -0.0434856 -0.0355654 
65 1 0.00048 0.017792 0.00133099 -3.92382e-05 -5.50904e-05 -1.09635e-06 0 -9.27207e-09 7.91401e-08 0 0.0698802 -0.0263816 0.108665 
4 1 0.00058 0.0171607 0.00053797 -3.8784e-05 -9.13031e-06 -5.44885e-06 0 1.43977e-08 9.43386e-08 0 -0.0113512 0.0512071 -0.000744933 
5 1 0.00056 0.0182408 0.00048609 3.096e-05 -6.57411e-06 1.25497e-06 0 1.60518e-08 7.05383e-08 0 -0.00581916 -0.0530889 0.00328749 
49 1 0.0005 0.0199941 0.00131556 4.93031e-05 -4.41018e-05 -2.05433e-06 0 3.06263e-09 3.56345e-08 0 0.059183 -0.0799644 0.0807666 
40 1 0.0005 0.0189162 0.00128032 6.72355e-06 -5.30159e-05 6.50575e-07 0 6.54635e-09 6.32606e-08 0 -0.0330841 0.0166489 0.105683 
42 1 0.0005 0.0192496 0.000430948 -3.72737e-05 -3.56061e-06 6.09112e-06 0 8.34595e-09 2.95238e-08 0 0.00158851 0.0548331 0.00295528 
18 1 0.00054 0.000903081 0.0023074 5.14548e-06 -7.47285e-05 1.29073e-05 0 3.2141e-08 1.70201e-08 0 -0.144482 0.925744 0.117117 
50 1 0.0005 0.000375517 0.00315704 -4.9345e-05 -0.000127562 -2.73124e-05 0 4.25317e-08 7.56933e-09 0 -0.284092 -0.217697 -0.035065 
182 1 0.00046 0.00206005 0.00294612 -3.17454e-05 -0.00011219 -2.12133e-05 0 1.3535e-08 -3.84042e-09 0 0.0681391 0.0641885 0.0444541 
24 1 0.00052 0.00231865 0.00211899 -1.41959e-06 -6.89997e-05 -1.47839e-05 0 2.46501e-08 -1.49898e-09 0 -0.0504423 -0.0701895 0.0437461 
189 1 0.00044 0.00291812 0.00285014 3.50109e-05 -0.000100422 -8.80942e-06 0 5.89659e-10 5.8212e-09 0 -0.067349 -0.0746093 0.00836967 
66 1 0.00048 0.00325159 0.00201952 -3.46654e-05 -6.60895e-05 5.95813e-06 0 2.27188e-08 3.07471e-10 0 0.0554918 0.0752682 0.0195278 
22 1 0.00054 0.0038586 0.00297752 -3.02218e-05 -0.000105689 3.55569e-06 0 -3.1148e-08 3.17057e-08 0 -0.0903326 0.0462641 0.0779985 
70 1 0.00048 0.00412417 0.00209077 3.70504e-05 -6.15588e-05 6.86655e-06 0 1.95586e-08 3.57891e-08 0 0.0950154 -0.0589532 -0.00375998 
164 1 0.00048 0.00497577 0.0030009 3.07542e-05 -0.000112197 -2.13072e-05 0 -1.33903e-07 -2.63045e-08 0 0.00793452 -0.0596697 0.105047 
69 1 0.00048 0.00497183 0.00196089 -2.23732e-05 -5.89169e-05 4.11574e-06 0 1.33203e-08 -1.09615e-08 0 -0.0470165 0.0553504 0.0232363 
89 1 0.00044 0.00563936 0.00243836 -2.11247e-06 -7.88021e-05 2.17978e-06 0 -2.13464e-08 3.39313e-08 0 0.101091 -0.0220052 -0.0166661 
44 1 0.0005 0.00622873 0.00307388 -3.67063e-05 -0.000102626 1.43671e-06 0 -2.86081e-08 8.12192e-08 0 -0.0510406 0.058789 0.0413597 
80 1 0.00046 0.00641772 0.00213343 3.11799e-05 -8.10256e-05 1.80373e-06 0 7.3064e-09 9.43479e-08 0 -0.0595446 -0.0015799 0.031037 
93 1 0.00042 0.00698338 0.00271065 -2.75116e-05 -9.31723e-05 1.15463e-05 0 -2.94085e-09 3.79426e-08 0 0.0298818 -0.047427 -0.00407703 
64 1 0.00048 0.00731171 0.00191201 4.80419e-05 -7.95255e-05 1.98511e-05 0 -4.71144e-10 3.44122e-08 0 -0.0414654 0.049088 0.0192135 
90 1 0.00044 0.00771934 0.00291352 1.77683e-05 -9.97298e-05 9.92638e-06 0 1.40742e-08 4.28669e-08 0 0.0625458 0.0730241 0.0250416 
1 1 0.00058 0.00827985 0.00219956 -3.97226e-05 -9.14159e-05 1.21586e-05 0 2.60922e-08 5.65505e-08 0 -0.0373052 -0.068352 -0.00268215 
31 1 0.00052 0.0087573 0.00311988 4.55657e-05 -9.7145e-05 1.40808e-05 0 1.06498e-08 5.92306e-08 0 -0.00449358 0.00119463 -0.000650231 
82 1 0.00046 0.00924053 0.0023068 1.80717e-05 -9.52011e-05 -4.64469e-06 0 2.09968e-08 6.8456e-08 0 -0.0453624 0.0820953 -0.029152 
14 1 0.00054 0.009796 0.0031284 -3.93388e-05 -0.000112235 3.64759e-06 0 4.18503e-08 3.3394e-08 0 0.0363798 0.000164306 0.00687453 
39 1 0.0005 0.0101294 0.00222305 2.40231e-05 -9.03883e-05 -1.02745e-05 0 3.39852e-08 7.52299e-08 0 -0.00541336 -0.0744699 0.0214674 
162 1 0.00048 0.0107302 0.00309806 2.716e-05 -0.000110825 -2.5828e-06 0 2.21488e-08 6.12835e-08 0 -0.0229304 0.00129956 -0.00471578 
55 1 0.0005 0.0110897 0.00228148 -4.78087e-05 -9.20847e-05 -6.74987e-06 0 3.86668e-08 9.35724e-08 0 -0.00601836 0.0754146 0.0292301 
27 1 0.00052 0.0116509 0.00309634 -4.25165e-05 -0.000118689 -3.52194e-06 0 2.62625e-08 1.15044e-07 0 0.0422832 -0.00490043 0.00285706 
45 1 0.0005 0.0120532 0.00222715 -4.01526e-05 -7.99019e-05 1.46491e-05 0 -6.15782e-09 6.81371e-08 0 0.00796215 -0.086061 0.0673097 
26 1 0.00052 0.0126177 0.00312476 2.94528e-05 -0.000128063 -2.17949e-05 0 -4.18706e-08 3.1505e-08 0 0.0139586 0.00907438 -0.00839932 
10 1 0.00056 0.0131012 0.00222945 4.21294e-05 -8.06901e-05 -1.08768e-05 0 -1.03367e-07 -2.5489e-08 0 0.00357836 -0.0415029 0.096743 
36 1 0.00052 0.0136451 0.00314414 2.4953e-06 -0.000131044 -5.23006e-06 0 -8.07145e-08 -7.54621e-08 0 -0.0147282 -0.00196888 0.0142892 
87 1 0.00044 0.01416 0.00242058 2.35941e-05 -0.000104706 2.06145e-06 0 -4.00644e-08 -5.81711e-08 0 0.0164591 0.00263511 0.053231 
41 1 0.0005 0.0146219 0.00314244 -2.89305e-05 -0.000131807 1.25404e-05 0 -8.34474e-08 -9.12978e-08 0 -0.00564144 0.00615013 0.0210446 
57 1 0.0005 0.0150749 0.00224499 3.21045e-05 -9.27831e-05 2.93722e-05 0 -4.8837e-09 -8.30084e-08 0 -0.0289487 0.0051454 0.00428354 
21 1 0.00054 0.0156077 0.00309005 2.08022e-05 -0.000119937 3.91433e-05 0 -7.86128e-08 -2.83669e-08 0 0.0163594 -0.0145314 0.0415575 
76 1 0.00046 0.0159988 0.00209359 1.69816e-05 -0.000100153 3.63349e-05 0 3.49257e-08 2.776e-08 0 0.00066509 -0.00297626 0.0461701 
71 1 0.00048 0.0164957 0.00284549 -1.31875e-05 -0.000110692 3.40242e-05 0 -3.98415e-08 7.46083e-08 0 -0.00258194 0.0161099 -0.0415803 
81 1 0.00046 0.0169198 0.00207897 -2.13541e-05 -0.000113167 1.54952e-05 0 -3.49063e-09 9.15696e-08 0 0.131823 -0.246414 0.00436528 
63 1 0.00048 0.0173499 0.00302219 -2.48084e-05 -0.000110376 6.4261e-07 0 -3.04921e-08 9.30745e-08 0 -0.0475201 -0.0353649 -0.025012 
16 1 0.00054 0.017856 0.00224458 7.17441e-06 -0.00011083 1.03579e-06 0 -1.21691e-08 1.53321e-07 0 -0.0648144 0.215301 0.00251368 
51 1 0.0005 0.0184352 0.00302927 -3.11061e-05 -0.000116642 6.32665e-07 0 6.01599e-09 8.8767e-08 0 0.141554 -0.155294 -8.66162e-05 
37 1 0.00052 0.0188537 0.00220893 -6.697e-06 -0.00010981 -5.98995e-06 0 3.36998e-09 9.52724e-08 0 0.047448 -0.226146 0.00236028 
6 1 0.00056 0.0194252 0.00303858 1.88296e-05 -0.000123318 -5.58871e-06 0 5.95653e-08 8.87953e-08 0 -0.0804711 0.144753 0.0195751 
13 1 0.00054 0.0198443 0.00217652 2.40593e-05 -9.75956e-05 -2.15119e-06 0 1.15998e-08 6.09852e-08 0 -0.0909467 0.229464 0.0208207 
11 1 0.00056 0.00130984 0.00346501 4.11056e-07 -0.000129709 -2.61495e-05 0 3.85432e-08 -2.23519e-09 0 -0.180854 0.0368673 0.00373292 
179 1 0.00046 0.00153176 0.00437942 -3.43082e-05 -0.000160457 -1.82532e-05 0 2.07419e-09 -3.88218e-09 0 0.243117 0.0586743 0.0567334 
160 1 0.00048 0.000509085 0.00405311 4.11872e-05 -0.00015097 -3.44705e-05 0 1.4461e-08 -8.31664e-09 0 0.221166 -0.0451082 0.0591956 
3 1 0.00058 0.000781236 0.00499824 1.15215e-05 -0.000184138 -2.66912e-05 0 -1.71296e-08 -1.12198e-08 0 -0.181714 -0.0618688 0.00402765 
62 1 0.00048 0.0022447 0.00383262 4.14547e-05 -0.00013937 -1.47285e-05 0 7.27924e-09 5.29574e-09 0 -0.0909257 -0.148656 -0.00109479 
171 1 0.00048 0.00261577 0.0046837 2.79416e-05 -0.000177068 8.63429e-07 0 -1.48495e-08 1.56187e-08 0 -0.0506385 -0.203218 0.0907933 
178 1 0.00046 0.00312848 0.00368786 -1.57031e-06 -0.000137138 -4.53762e-06 0 -1.09219e-08 9.71729e-09 0 0.0872588 0.137661 0.0414234 
163 1 0.00048 0.00358765 0.00469921 5.32063e-06 -0.000181521 -1.2052e-05 0 -2.23127e-08 1.674e-08 0 -0.0361999 -0.0840286 0.0635632 
155 1 0.0005 0.00400982 0.00391643 -2.6529e-06 -0.000151915 3.74652e-06 0 -2.80144e-08 2.01206e-08 0 0.104505 -0.0609008 -0.00348099 
103 1 0.00056 0.00457334 0.0049466 -3.58607e-05 -0.000185946 -4.86905e-06 0 -7.4653e-09 -8.32424e-09 0 -0.0331757 0.0590839 0.0097666 
108 1 0.00054 0.00498555 0.00397166 -2.13321e-05 -0.000162456 -9.77032e-06 0 -1.39753e-08 -9.51925e-09 0 -0.00915131 0.0514368 -0.000420138 
106 1 0.00056 0.00564989 0.00479153 -4.97251e-05 -0.000179136 -2.57181e-06 0 1.75234e-08 1.69681e-09 0 -0.002177 -0.0606788 0.0220549 
187 1 0.00046 0.00596182 0.00390431 -2.41619e-05 -0.000149313 -2.04813e-06 0 4.22036e-08 4.10691e-08 0 0.0435534 -0.0453232 0.0422865 
116 1 0.00054 0.00666444 0.00459886 -2.57589e-05 -0.000164917 -3.05695e-06 0 4.88097e-08 2.22517e-08 0 0.00843659 0.0635104 -0.00158539 
138 1 0.0005 0.00701136 0.00365682 -4.22335e-05 -0.000130483 5.93797e-06 0 4.84362e-08 -1.43821e-08 0 0.00263789 -0.0973482 0.025626 
95 1 0.00058 0.00773404 0.00462648 4.30556e-05 -0.000157958 5.55028e-06 0 6.42566e-08 1.35542e-08 0 -0.002364 -0.0556566 0.0398093 
61 1 0.00048 0.00794961 0.00368326 4.42331e-05 -0.000117549 1.04585e-05 0 4.18547e-08 3.73596e-08 0 -0.00162838 0.103458 0.00853577 
153 1 0.0005 0.0087662 0.00406164 -4.39636e-05 -0.000118814 2.59618e-05 0 4.08824e-08 3.07979e-08 0 0.0144449 -0.0859049 0.0524003 
38 1 0.0005 0.00978826 0.00487385 4.93343e-05 -0.000130227 5.45905e-05 0 -7.90678e-08 -1.48936e-07 0 0.0679895 -0.118455 0.114604 
75 1 0.00046 0.00959907 0.00400245 4.05756e-05 -0.000103239 2.7334e-05 0 -1.00092e-08 -3.02791e-08 0 -0.0766748 0.0959347 -0.052793 
169 1 0.00048 0.00869555 0.00490893 -1.72291e-05 -0.000166952 2.59242e-05 0 2.60733e-08 2.67087e-08 0 -0.0192649 0.0636253 0.028941 
191 1 0.00044 0.0104137 0.00387935 -3.72271e-05 -0.000111842 -3.54592e-07 0 -4.48213e-09 8.25942e-09 0 0.051985 -0.0877132 0.0128428 
166 1 0.00048 0.0107555 0.00467078 4.50596e-05 -0.000204081 1.93836e-05 0 7.17394e-08 -1.52172e-08 0 -0.0340496 0.0959309 0.201999 
88 1 0.00044 0.0112724 0.00394403 1.35023e-05 -0.000121488 2.36723e-05 0 1.05495e-08 3.38853e-08 0 -0.0983248 0.086664 -0.016079 
152 1 0.0005 0.0119233 0.00475413 3.81834e-05 -0.000164694 -3.55417e-05 0 9.13046e-08 4.11659e-08 0 0.0295742 0.00483611 0.0666268 
85 1 0.00044 0.0121317 0.00389308 3.14585e-06 -0.00012745 -2.02687e-05 0 3.59687e-08 4.57944e-08 0 -0.0369437 0.00959019 1.36309e-05 
151 1 0.0005 0.0128921 0.00492815 -2.4127e-05 -0.000183783 -2.1517e-05 0 8.52643e-08 7.38545e-08 0 -0.0131056 0.00228302 0.0115991 
99 1 0.00056 0.0131202 0.00399467 1.0814e-05 -0.000150746 -1.68444e-05 0 3.92814e-08 -3.21509e-10 0 0.00601449 0.00528903 0.0385685 
174 1 0.00046 0.0137525 0.00483784 -4.51984e-05 -0.000182655 -2.95376e-06 0 5.46363e-08 -2.36328e-08 0 -0.0148387 -0.00104259 0.0535531 
110 1 0.00054 0.0141762 0.00402817 1.00341e-06 -0.000155087 5.24193e-06 0 -6.04639e-08 -9.564e-08 0 0.00756869 0.000385623 0.0175142 
126 1 0.00052 0.0146976 0.00489105 6.87793e-06 -0.000170949 4.39658e-06 0 9.0715e-09 -4.72302e-08 0 0.00839129 0.0129083 -0.00484029 
25 1 0.00052 0.0151448 0.0039593 1.87838e-05 -0.000157263 2.1726e-05 0 -8.07175e-08 -8.11962e-08 0 -0.00319201 -0.0040867 0.0283965 
47 1 0.0005 0.0160697 0.00415558 4.33922e-05 -0.000167359 1.02374e-05 0 -2.34946e-08 -3.87345e-08 0 -0.0187806 -0.00565581 -0.0412256 
79 1 0.00046 0.0167671 0.00468924 2.18197e-05 -0.000166426 -6.84201e-07 0 -1.57777e-08 5.57474e-09 0 -0.0544862 -0.0493629 0.0301581 
56 1 0.0005 0.0170189 0.00386751 -2.12721e-05 -0.000171277 -1.31072e-05 0 5.42711e-08 8.8832e-08 0 0.0602013 0.0236552 -0.0552068 
77 1 0.00046 0.0176501 0.00460832 6.56493e-06 -0.000178431 -5.02185e-06 0 2.3979e-08 3.2337e-08 0 0.0175536 0.0498437 -0.0211303 
130 1 0.00052 0.0179521 0.00377708 9.36883e-06 -0.000155048 -8.07285e-06 0 2.20722e-08 9.61837e-08 0 -0.0178826 -0.0310743 0.0648742 
2 1 0.00058 0.018685 0.00453804 3.03201e-05 -0.00018062 -1.08108e-05 0 2.2509e-08 3.84579e-08 0 -0.0445498 -0.0367679 -0.0218189 
73 1 0.00046 0.019398 0.00392476 1.43967e-05 -0.000165558 -1.29294e-05 0 3.55507e-08 4.22324e-08 0 0.0785265 0.0358437 0.0541043 
23 1 0.00054 0.0197401 0.00478808 -2.66714e-05 -0.000181997 -2.68891e-05 0 -7.82204e-09 3.47019e-08 0 -0.0326551 0.0237327 -0.0116773 
135 1 0.0005 0.00118255 0.00594929 1.46596e-05 -0.000232584 -2.35719e-05 0 -4.83995e-09 -1.14262e-08 0 0.169225 0.0406966 0.0806433 
197 1 0.00042 0.000307847 0.0065028 -3.99128e-05 -0.000263238 -4.68243e-06 0 -8.97496e-09 -1.95827e-08 0 -0.0260084 0.0739064 0.0762734 
58 1 0.0005 7.28394e-05 0.00571471 -3.26099e-05 -0.000204689 -2.9552e-05 0 -9.696e-09 -1.01429e-08 0 0.102532 0.18495 0.0511234 
139 1 0.0005 0.00180096 0.00521767 -7.07934e-06 -0.000197113 -8.61307e-06 0 -2.01077e-08 -8.5906e-10 0 -0.204018 -0.0170323 0.0239297 
109 1 0.00054 0.00211691 0.00645883 -2.06108e-05 -0.000252745 -8.29755e-06 0 -1.75148e-08 1.37887e-08 0 -0.0092248 0.0307279 0.0470488 
156 1 0.0005 0.00261672 0.00563283 3.54227e-05 -0.000219591 -8.15184e-07 0 -2.59666e-08 1.36831e-08 0 0.0352411 -0.0661502 0.00303169 
175 1 0.00046 0.00311318 0.00641073 -2.96496e-05 -0.000240925 -7.92447e-06 0 -5.78169e-09 1.55566e-08 0 -0.0797151 -0.0120993 0.0427262 
114 1 0.00054 0.00357014 0.00562823 1.90715e-05 -0.000216521 -4.24952e-06 0 -2.25646e-08 2.59461e-08 0 0.0351222 0.0605602 0.00108142 
185 1 0.00046 0.0044298 0.00591201 1.72497e-05 -0.000214584 -2.94575e-06 0 2.06597e-09 5.14374e-09 0 0.033004 -0.0452821 0.0106358 
102 1 0.00056 0.00534379 0.00576115 2.50127e-05 -0.000210881 3.53405e-07 0 9.67918e-09 -2.99511e-08 0 0.0147638 0.0251852 0.025842 
192 1 0.00044 0.00593634 0.00650226 -4.27825e-05 -0.000238348 4.66483e-06 0 1.31348e-08 -3.10521e-08 0 0.00937153 0.0171505 -0.00479 
188 1 0.00044 0.00628009 0.00553421 2.43943e-05 -0.000198438 -5.82849e-06 0 1.87382e-08 -9.81448e-09 0 -0.080014 -0.0172482 -0.0351497 
149 1 0.0005 0.0067801 0.00637441 -3.07296e-05 -0.000236042 -3.54975e-06 0 4.06153e-08 -4.09051e-08 0 -0.0185357 -0.0200162 0.00648708 
131 1 0.00052 0.00719071 0.00549517 -2.4969e-05 -0.000199814 -7.79816e-06 0 7.09804e-08 -1.61592e-09 0 0.0275462 0.0115194 0.0428675 
237 1 0.00052 0.00768798 0.00633599 1.47771e-05 -0.000232675 5.85982e-06 0 7.39728e-08 -1.71414e-09 0 0.000428009 0.0254984 0.0248606 
159 1 0.00048 0.00816348 0.00556064 -2.62417e-05 -0.000203765 1.42146e-05 0 6.02171e-08 9.86755e-09 0 -0.0271417 -0.00285295 0.0441419 
125 1 0.00052 0.00862345 0.00633237 -3.20614e-05 -0.000227185 1.1539e-05 0 9.54636e-08 6.24001e-08 0 0.00890177 -0.0283288 -0.0109342 
136 1 0.0005 0.00924279 0.00566129 -4.70071e-05 -0.000203344 2.8552e-05 0 -3.70166e-09 -7.12428e-08 0 0.0432586 -0.0328206 0.0597414 
170 1 0.00048 0.0101009 0.00575283 4.476e-05 -0.000211315 8.87872e-05 0 -7.72076e-08 -2.03066e-07 0 -0.109976 0.0291382 0.0736509 
167 1 0.00048 0.0109146 0.0055537 -5.06646e-06 -0.000220602 2.98236e-05 0 2.60997e-08 -4.90152e-08 0 0.0471495 -0.0145503 -0.196962 
123 1 0.00052 0.01137 0.00651045 -4.22073e-05 -0.000222164 -8.75335e-06 0 -1.77821e-07 -2.78139e-07 0 0.0130287 0.0581403 -0.0881807 
168 1 0.00048 0.0117427 0.00566421 2.60985e-05 -0.000215737 -4.13424e-05 0 4.54934e-08 -5.05436e-09 0 -0.0378033 0.0153075 0.0353918 
150 1 0.0005 0.0123205 0.00640297 1.83575e-05 -0.000223225 -3.41014e-05 0 -8.65604e-08 4.60008e-08 0 -0.00847189 -0.0596183 0.0106788 
196 1 0.00042 0.0125065 0.00559664 -2.28987e-05 -0.000204182 -2.73312e-05 0 1.09471e-08 2.24855e-08 0 0.0308012 -0.0214233 0.0219208 
157 1 0.0005 0.0132019 0.00609263 2.90979e-05 -0.000214701 -1.21308e-05 0 -2.31736e-08 -1.706e-08 0 0.016674 0.0492515 0.0401533 
96 1 0.00058 0.0141428 0.00577109 4.28851e-05 -0.000204997 -1.11828e-05 0 1.11253e-07 2.38915e-08 0 0.000399177 -0.0429287 -0.0307276 
115 1 0.00054 0.0151657 0.00589298 -1.46308e-05 -0.000206867 -1.77888e-05 0 1.2946e-07 1.12384e-07 0 -0.0341122 0.0421035 0.0303301 
143 1 0.0005 0.0156678 0.00502216 -7.56683e-06 -0.00017283 6.05964e-06 0 7.96967e-09 3.53047e-09 0 0.0188936 -0.00601101 0.0332737 
141 1 0.0005 0.0160429 0.00623949 -4.83823e-05 -0.000215429 3.52147e-06 0 1.18836e-07 5.97173e-08 0 -0.0210074 -0.06764 0.0513239 
146 1 0.0005 0.0165047 0.00551967 2.89194e-05 -0.000185375 4.99518e-06 0 6.23965e-08 3.44656e-08 0 0.0455137 0.0397928 0.0037638 
195 1 0.00044 0.0169739 0.00632256 3.21564e-05 -0.000230099 -4.85636e-06 0 7.36603e-08 2.78263e-08 0 0.0268831 0.0804623 0.0732944 
190 1 0.00044 0.0173075 0.0053764 -4.85919e-05 -0.000175177 1.74611e-06 0 1.59747e-09 -7.20147e-09 0 -0.0213542 -0.0511668 -0.00788233 
101 1 0.00056 0.0180621 0.00628202 -1.12464e-05 -0.000231779 -5.78957e-06 0 4.84152e-10 -8.30274e-09 0 -0.0335003 0.00640057 0.10033 
147 1 0.0005 0.018132 0.00535534 3.12852e-05 -0.000171473 -5.86851e-06 0 -9.95011e-09 1.39155e-08 0 0.0413383 0.0443461 0.00205613 
172 1 0.00048 0.0192771 0.00635931 2.46256e-05 -0.000229973 -2.21671e-05 0 -1.92896e-08 -8.17349e-09 0 -0.0708866 -0.116432 0.160366 
144 1 0.0005 0.0190474 0.0054899 -4.44854e-05 -0.000164915 -2.29801e-05 0 -2.34042e-08 2.19268e-08 0 0.0304552 -0.0288166 -0.026924 
194 1 0.00044 0.00125259 0.00681334 -2.73404e-05 -0.000277102 -1.78564e-05 0 -5.46769e-09 -9.10818e-09 0 -0.154431 0.0190939 -0.00279491 
107 1 0.00054 0.0011284 0.00795886 -3.38667e-05 -0.000295313 -5.12887e-06 0 -3.55197e-08 -3.40895e-08 0 0.0131026 0.0355164 -0.00226458 
193 1 0.00044 0.000587489 0.00725968 -4.2113e-05 -0.000289732 -4.88969e-06 0 -1.03495e-08 -2.77735e-08 0 0.0500236 0.0342505 8.59389e-05 
211 1 0.00056 9.64674e-05 0.0080761 1.49646e-05 -0.000299091 -1.8076e-06 0 -4.3792e-08 -7.16582e-08 0 -0.0145258 -0.0400226 0.0106292 
137 1 0.0005 0.00189076 0.0074249 7.74856e-06 -0.000286089 -1.17398e-05 0 -1.29408e-08 4.18984e-09 0 0.029114 -0.0761102 0.0135706 
177 1 0.00046 0.00204221 0.00829822 5.5329e-07 -0.000301973 -8.47862e-06 0 -9.5947e-09 2.95663e-09 0 -0.0296327 -0.0224365 0.0120669 
118 1 0.00054 0.0028224 0.00725591 3.67542e-05 -0.000275822 -5.91691e-06 0 1.14954e-09 2.74425e-08 0 0.0511419 0.0465378 0.0148024 
273 1 0.00048 0.00291535 0.00819983 1.2865e-05 -0.000297395 -2.22458e-06 0 4.10597e-09 1.48598e-08 0 -0.0340489 0.026927 0.0205793 
132 1 0.00052 0.00373446 0.00772287 -4.70278e-05 -0.000283238 -1.39131e-06 0 1.75568e-08 1.64817e-08 0 0.00346037 -0.0147878 0.00551826 
127 1 0.00052 0.00398761 0.00673788 -1.13161e-05 -0.000248502 5.20727e-06 0 1.18441e-08 2.45715e-08 0 0.00164218 -0.0076042 0.0303426 
142 1 0.0005 0.00470934 0.0076822 1.72877e-05 -0.000277604 -5.55696e-07 0 2.49617e-08 -1.25516e-08 0 0.00792147 0.0177634 0.0170667 
97 1 0.00058 0.00504331 0.00677353 -4.33679e-05 -0.000247473 -3.16731e-06 0 2.87848e-08 -3.95432e-08 0 -0.0171854 -0.0030035 0.0347648 
129 1 0.00052 0.00567591 0.00765956 7.98975e-06 -0.000270998 7.58701e-06 0 1.6688e-08 -4.63112e-08 0 0.00137623 -0.0204321 0.00237916 
145 1 0.0005 0.00645325 0.00722425 -4.89198e-05 -0.00025608 2.66795e-06 0 9.25873e-09 -5.64421e-08 0 0.0164442 0.0117442 0.0157695 
117 1 0.00054 0.00702804 0.00808633 -1.8846e-05 -0.000293116 6.68335e-06 0 1.28679e-09 -2.9983e-08 0 0.000905001 0.00440151 0.0330709 
158 1 0.00048 0.00734994 0.00719564 -2.80691e-05 -0.00026067 5.15391e-06 0 1.31109e-08 -2.62611e-08 0 0.000622269 -0.0105586 0.0118804 
303 1 0.00042 0.00791033 0.00787652 -4.34141e-05 -0.000289826 1.60972e-05 0 1.80012e-09 -1.16157e-08 0 -0.00180609 -0.00655332 0.00865116 
184 1 0.00046 0.00823039 0.00712392 2.59556e-05 -0.000258379 1.65679e-05 0 2.67432e-08 7.25872e-09 0 0.00876332 0.00157119 0.0484389 
111 1 0.00054 0.00883034 0.00784886 -3.81694e-05 -0.000300733 3.36579e-05 0 3.47137e-08 1.33387e-08 0 -0.00706831 0.00183437 0.0405494 
210 1 0.00056 0.00940372 0.00692536 -2.37608e-06 -0.000259696 3.668e-05 0 1.73568e-07 9.1802e-08 0 0.0146774 0.0476068 0.127784 
233 1 0.00052 0.00981896 0.00782959 -1.57412e-05 -0.000320259 2.881e-05 0 1.06997e-07 1.79054e-07 0 0.0098523 -0.00289011 -0.0402987 
100 1 0.00056 0.0103955 0.00668222 -1.47472e-05 -0.00022609 8.4813e-05 0 -4.77113e-08 -5.39316e-07 0 0.0810188 -0.0728201 -0.0484593 
213 1 0.00056 0.0107279 0.00823318 4.979e-05 -0.000312963 -2.97179e-05 0 -4.19311e-08 3.91502e-07 0 0.00856411 0.0119967 -0.0438967 
199 1 0.00042 0.0110259 0.00736086 2.22644e-05 -0.000124179 1.6806e-05 0 -3.18085e-07 -2.14153e-09 0 -0.100126 0.117242 -0.0974304 
120 1 0.00052 0.0117077 0.00820754 -4.55597e-05 -0.000297551 -4.49652e-05 0 -1.11911e-07 1.3703e-07 0 -0.022006 -0.016057 0.0280407 
112 1 0.00054 0.0120261 0.00729853 -4.5975e-05 -0.000245344 -3.5914e-05 0 -3.54371e-07 4.99027e-08 0 0.0267459 0.00712691 0.0589126 
161 1 0.00048 0.0128427 0.00785095 4.23607e-05 -0.000276445 -2.4343e-05 0 -5.06192e-08 -2.44416e-08 0 0.012739 -0.00145201 0.013924 
186 1 0.00046 0.0130082 0.00699162 4.20701e-05 -0.000247133 -2.08456e-05 0 -2.31469e-08 -1.06015e-09 0 -0.0286338 0.0252971 0.0385714 
104 1 0.00056 0.0138363 0.00781524 -5.04024e-06 -0.000276312 -1.76163e-05 0 3.12494e-08 -7.2033e-08 0 -0.00907817 0.0119746 0.030239 
148 1 0.0005 0.013892 0.00679822 1.64328e-05 -0.000248447 -1.80779e-05 0 7.50218e-08 -3.43082e-08 0 0.00713121 -0.0149049 -0.0132125 
154 1 0.0005 0.0148393 0.00792176 -1.6913e-05 -0.000283491 -1.19373e-05 0 5.11889e-08 7.34143e-09 0 -0.01279 -0.0230042 0.0118897 
98 1 0.00058 0.0148956 0.00691101 -4.21217e-05 -0.000252457 -1.98376e-05 0 1.95085e-07 1.05233e-07 0 0.0145042 0.0119642 0.0293857 
128 1 0.00052 0.0158074 0.00811085 -3.94419e-05 -0.000295718 -4.31345e-06 0 9.77732e-08 1.88748e-08 0 -0.024985 0.021943 0.0266843 
121 1 0.00052 0.0159027 0.0071329 -1.21974e-05 -0.000265529 -1.84074e-06 0 1.32507e-07 7.78123e-08 0 0.0271577 -0.00145467 0.0364479 
124 1 0.00052 0.0166698 0.00770142 -3.70828e-05 -0.000285513 -2.50726e-06 0 1.2961e-07 8.49472e-08 0 -0.030414 -0.00221564 -0.0170031 
119 1 0.00054 0.0174748 0.0071501 -3.33274e-05 -0.000284227 -1.31103e-05 0 1.05151e-07 7.5231e-08 0 0.0165789 0.0170461 0.00566596 
165 1 0.00048 0.0181407 0.00805617 -3.83096e-05 -0.000301448 2.93533e-06 0 1.40882e-08 -1.20495e-08 0 -0.00843928 -0.0139836 0.00788911 
113 1 0.00054 0.0184908 0.00717519 -2.02095e-05 -0.000289168 6.78116e-06 0 3.78478e-08 -5.41432e-08 0 0.0236686 -0.0196864 0.0162408 
173 1 0.00048 0.0191623 0.007782 -4.84051e-05 -0.000294995 2.05463e-06 0 -1.12388e-08 -5.45534e-08 0 -0.00506726 0.0417094 -0.00295858 
140 1 0.0005 0.0197422 0.00712975 -3.46879e-05 -0.000291182 -3.38354e-06 0 -8.41331e-09 -4.08588e-08 0 -0.0123845 -0.0233312 -0.00708924 
215 1 0.00054 0.00158467 0.00914992 2.66777e-05 -0.000317246 -2.52951e-06 0 -3.91304e-08 -2.29394e-08 0 0.0168096 -0.00319664 -0.00168443 
301 1 0.00042 0.000788312 0.00875825 -3.96098e-06 -0.000310799 -2.37128e-07 0 -2.42101e-08 -2.62639e-08 0 -0.0274567 -0.00471201 0.0149107 
248 1 0.0005 0.000717802 0.00962897 -1.72888e-05 -0.000322943 1.98995e-06 0 -4.95377e-08 -4.67377e-08 0 0.0114048 0.000955043 -0.000415458 
229 1 0.00052 0.00230381 0.00997611 2.41907e-05 -0.000332028 -2.30898e-06 0 -1.17823e-08 -5.45288e-09 0 -0.0134744 0.00629643 0.0027678 
236 1 0.00052 0.00256739 0.00906467 4.87165e-05 -0.000315829 -3.85715e-06 0 -3.42636e-09 1.03244e-08 0 0.0150155 0.00166076 0.0129119 
291 1 0.00046 0.00321513 0.00972722 7.50784e-06 -0.000327151 1.60319e-06 0 1.07151e-08 7.63079e-09 0 -0.0181464 -0.00344338 0.0215477 
286 1 0.00046 0.00346427 0.00889113 -7.08428e-06 -0.000308917 -3.42625e-07 0 1.53056e-08 1.02218e-08 0 0.0301781 -0.0118789 6.28084e-06 
234 1 0.00052 0.00417724 0.0095444 6.12283e-06 -0.000322647 1.50622e-06 0 5.28828e-08 1.23286e-08 0 -0.00223788 0.0152516 0.0278255 
201 1 0.00058 0.00434456 0.00858014 1.74262e-06 -0.000298355 -2.98097e-07 0 6.40963e-08 9.70266e-09 0 -0.00711108 0.000829597 0.0130019 
265 1 0.00048 0.00515304 0.0094382 -2.81666e-05 -0.000320724 1.09756e-05 0 4.918e-08 1.47749e-08 0 -0.00509681 -0.0093722 0.0114693 
134 1 0.00052 0.00534046 0.00853137 -1.04316e-05 -0.000295167 1.20927e-05 0 5.05305e-08 -1.72926e-08 0 0.00559093 0.00211124 0.0305634 
247 1 0.0005 0.00610018 0.00937777 9.49774e-06 -0.000316239 1.76713e-05 0 2.24494e-08 -2.83553e-09 0 -0.000576082 0.00470944 0.022775 
198 1 0.00042 0.00622034 0.00848908 -4.45245e-05 -0.000300641 1.12031e-05 0 7.55474e-09 -9.39542e-09 0 -3.71166e-05 -0.0052106 -0.0299736 
264 1 0.00048 0.00693137 0.00902758 3.54547e-06 -0.00031271 1.68379e-05 0 -8.74988e-09 -2.97393e-08 0 -0.00277426 -0.00198173 -0.00489842 
232 1 0.00052 0.00739213 0.00987176 -2.7703e-05 -0.000327885 2.83506e-05 0 -2.65745e-08 -2.85597e-08 0 0.00265393 0.00113801 0.024731 
176 1 0.00046 0.00777578 0.00871563 -4.92713e-05 -0.000313643 2.101e-05 0 -1.10827e-08 -1.5722e-08 0 0.00441715 0.000964682 0.0243698 
274 1 0.00048 0.00818922 0.00951357 1.26179e-05 -0.000321795 2.4372e-05 0 -5.17149e-08 -1.40437e-08 0 -0.00492666 -0.00181783 -0.019627 
244 1 0.0005 0.00869473 0.00879125 4.93873e-05 -0.000321815 2.17865e-05 0 -3.55238e-08 1.04289e-08 0 0.0071363 -0.00343289 -0.00237038 
228 1 0.00052 0.00908836 0.00970434 -4.18982e-05 -0.000326949 1.01025e-05 0 -6.46499e-08 2.93244e-09 0 -0.00298913 0.00387713 0.010227 
203 1 0.00058 0.00970574 0.00886148 -9.33208e-06 -0.000315459 1.17281e-05 0 -9.27495e-08 2.15461e-07 0 -0.00837634 0.00439148 -0.00714391 
225 1 0.00054 0.0106588 0.00928827 -3.72943e-05 -0.00030839 -2.28685e-05 0 -2.80262e-09 2.63646e-07 0 -0.0087803 -0.0113057 -0.0186069 
284 1 0.00046 0.0113631 0.0098918 1.32074e-05 -0.000324276 -3.28726e-05 0 6.87742e-08 3.72808e-08 0 -0.0166689 -0.00911988 0.0140616 
281 1 0.00046 0.0116015 0.00907788 3.24679e-05 -0.000313933 -3.84645e-05 0 4.99738e-08 6.97472e-08 0 0.0202308 0.00839453 0.00309282 
209 1 0.00056 0.0122871 0.00975888 -1.82378e-05 -0.000325675 -2.93586e-05 0 1.19007e-07 9.20766e-09 0 0.00327646 0.00908765 0.0164138 
105 1 0.00056 0.0125401 0.00875958 4.17083e-05 -0.000305327 -2.89986e-05 0 6.15047e-08 -2.70748e-08 0 -0.00708911 -0.0033343 0.019092 
302 1 0.00042 0.0132041 0.00962363 2.0062e-05 -0.000325745 -3.2699e-05 0 2.47366e-08 -1.78952e-08 0 -0.00649331 -0.00288058 0.0399751 