ITEM: TIMESTEP
400730000
ITEM: NUMBER OF ATOMS
400
ITEM: BOX BOUNDS pp ff ff
0 0.02
0 0.04
-0.00065 0.00065
ITEM: ATOMS id type radius x y z vx vy vz fx fy fz omegax omegay omegaz 
74 1 0.00046 0.0013289 0.000444487 3.36586e-05 -3.53869e-05 -8.70728e-06 0 5.63471e-08 5.2056e-09 0 -0.00488724 0.0241432 0.0447153 
35 1 0.00052 0.000915323 0.00128438 -1.66342e-05 -5.29887e-05 1.18111e-05 0 1.19449e-07 -5.14074e-08 0 -0.0456413 0.0761588 -0.052655 
7 1 0.00056 0.000242468 0.000443451 -3.64628e-05 4.33929e-06 -2.66631e-06 0 -4.06829e-08 1.02255e-08 0 -0.00596379 -0.0332857 -0.00773486 
49 1 0.0005 2.49605e-06 0.00131888 4.93031e-05 -7.01083e-05 -2.94152e-05 0 1.42111e-07 6.14607e-08 0 0.0472541 -0.0829083 0.181822 
43 1 0.0005 0.00183791 0.00127974 5.09221e-06 -4.98571e-05 -2.08575e-05 0 9.54445e-08 3.33915e-08 0 0.0489101 -0.0743685 0.00866597 
30 1 0.00052 0.00226972 0.000436016 -1.24497e-05 -2.29053e-05 -4.86986e-06 0 4.6882e-08 5.16936e-09 0 0.00604167 -0.019798 0.0216127 
67 1 0.00048 0.00274406 0.00128809 4.63423e-05 -4.86496e-05 -5.5849e-06 0 8.06916e-08 3.52036e-09 0 -0.010329 0.0658115 0.0362726 
17 1 0.00054 0.0032486 0.000515603 4.67087e-05 -2.23403e-05 1.08608e-06 0 5.31564e-08 5.82594e-10 0 -0.0128313 0.00720972 0.012874 
86 1 0.00044 0.00374802 0.00129089 -1.5404e-05 -4.8689e-05 6.97341e-06 0 7.07236e-08 -9.58505e-09 0 0.017904 0.00470049 0.021379 
84 1 0.00044 0.00460869 0.0011953 -2.0603e-05 -4.02039e-05 9.07018e-07 0 4.90548e-08 4.22013e-10 0 -0.0112932 -0.00498952 0.0273816 
54 1 0.0005 0.00417441 0.00041723 3.04549e-05 -1.6131e-05 3.75705e-07 0 3.46857e-08 -1.36196e-09 0 0.000984475 -0.00663249 0.00992669 
46 1 0.0005 0.00511803 0.000469549 4.04467e-05 -1.91902e-05 7.71919e-07 0 3.2833e-08 -2.92236e-09 0 0.0110892 0.00678756 0.0110928 
15 1 0.00054 0.00567318 0.00130798 -2.65834e-05 -4.64148e-05 -6.07497e-07 0 1.00861e-07 -3.58404e-09 0 0.011118 0.0710576 0.00861193 
72 1 0.00048 0.00664565 0.00128856 -2.02466e-06 -5.39505e-05 4.18664e-06 0 7.93429e-08 7.5614e-10 0 0.0442567 -0.0954083 0.0533226 
78 1 0.00046 0.00602344 0.00041835 -1.20537e-05 -1.70578e-05 2.29974e-06 0 2.41652e-08 -2.76559e-09 0 -0.0157386 -0.016979 0.0201849 
52 1 0.0005 0.00693259 0.000444383 3.91278e-05 -1.18985e-05 7.25048e-06 0 1.83325e-08 -1.08641e-08 0 -0.00640828 0.017825 0.0165336 
8 1 0.00056 0.00824757 0.0011758 -1.82355e-06 -4.5305e-05 -3.76205e-06 0 1.05438e-07 1.43053e-08 0 -0.0220048 0.00240647 0.116471 
92 1 0.00042 0.00779486 0.000364874 3.24564e-05 2.3806e-07 -7.35114e-06 0 -1.44679e-09 9.18341e-09 0 0.0051525 -0.0261431 -0.0339875 
60 1 0.00048 0.00876674 0.000397193 -3.28708e-05 2.27173e-06 9.92982e-06 0 -5.32701e-09 -1.31678e-08 0 0.00229797 0.0246803 -0.0189314 
32 1 0.00052 0.00930859 0.00138646 3.24568e-05 -6.86491e-05 -2.37994e-05 0 1.28722e-07 4.99954e-08 0 -0.00281883 0.0599457 0.120446 
20 1 0.00054 0.00975855 0.000490909 -2.76781e-05 -1.07152e-05 -4.37188e-06 0 2.87666e-08 1.1771e-08 0 -0.00807363 -0.0184674 0.00752024 
28 1 0.00052 0.0103911 0.00131264 -4.92787e-05 -5.46991e-05 -1.82876e-05 0 1.15457e-07 3.58799e-08 0 -0.0118591 -0.0151347 0.0536768 
34 1 0.00052 0.0113833 0.00139191 -4.32784e-06 -6.08592e-05 -7.47457e-06 0 1.28248e-07 1.21589e-08 0 -0.00894419 0.0141746 0.0202094 
59 1 0.00048 0.0107667 0.000444124 -3.96086e-06 -1.64562e-05 -7.10062e-06 0 2.75523e-08 1.11794e-08 0 0.00810381 0.00434384 0.017721 
9 1 0.00056 0.0117822 0.000485313 -1.32742e-05 -2.57481e-05 -3.04296e-06 0 6.98584e-08 5.79949e-09 0 -0.00210997 0.00932264 0.0299126 
19 1 0.00054 0.0124107 0.0013286 1.95463e-05 -5.6721e-05 2.82156e-06 0 1.39945e-07 -1.33682e-08 0 0.00801738 -0.0130489 0.0288019 
68 1 0.00048 0.0127835 0.000442103 1.3181e-05 -2.58829e-05 2.75232e-06 0 4.60083e-08 -7.50957e-09 0 0.00346799 -0.0181111 0.0166272 
12 1 0.00056 0.0134378 0.00122538 3.75182e-05 -5.10104e-05 6.76698e-06 0 1.45561e-07 -3.1388e-08 0 -0.00440627 0.0185463 0.00583221 
94 1 0.00042 0.0136159 0.000329188 1.89547e-05 -2.44128e-05 6.92702e-06 0 2.88362e-08 -1.12564e-08 0 -0.00350372 0.0261841 0.0402853 
48 1 0.0005 0.014358 0.00161828 1.99029e-05 -7.29913e-05 1.54745e-05 0 1.50706e-07 -5.0041e-08 0 -0.00727196 -0.0370083 0.0741296 
33 1 0.00052 0.0143675 0.000726428 -4.71808e-05 -3.57179e-05 8.00469e-06 0 8.05189e-08 -3.1006e-08 0 0.00553706 -0.0237013 -0.0107565 
83 1 0.00046 0.0156517 0.00128487 1.72248e-05 -6.01974e-05 3.20635e-06 0 8.3168e-08 -2.32592e-08 0 0.0587203 0.144165 0.034229 
29 1 0.00052 0.0152296 0.000426288 3.7231e-06 -2.51341e-05 5.78032e-06 0 5.19961e-08 -2.27618e-08 0 0.00453135 0.023712 0.0355983 
91 1 0.00044 0.016555 0.00131755 3.54547e-05 -7.49421e-05 -1.98566e-05 0 9.68699e-08 2.04866e-08 0 0.058682 -0.114345 0.136188 
53 1 0.0005 0.0161599 0.000503371 -4.85386e-05 -2.50612e-05 -1.5151e-06 0 4.97877e-08 -1.46162e-08 0 -0.117053 -0.0401822 -0.0481835 
65 1 0.00048 0.0178007 0.00133147 -3.92382e-05 -7.27582e-05 -6.29764e-06 0 1.47291e-07 1.95882e-09 0 0.0365014 -0.0211266 0.131134 
4 1 0.00058 0.0171624 0.000539209 -3.8784e-05 -1.58104e-05 -1.13238e-05 0 4.65332e-08 2.89501e-08 0 -0.0058339 0.0340986 0.00544755 
5 1 0.00056 0.0182419 0.000485939 3.096e-05 -9.91733e-06 3.99337e-07 0 2.48709e-08 -1.16134e-08 0 3.59538e-05 -0.0356426 0.00773372 
40 1 0.0005 0.0189246 0.00128042 6.72355e-06 -7.46157e-05 -5.0804e-06 0 1.60693e-07 -2.02081e-09 0 -0.02703 0.0157639 0.156965 
42 1 0.0005 0.0192498 0.000430001 -3.72737e-05 -1.95651e-06 6.95792e-06 0 -2.38327e-09 -2.50213e-08 0 0.00190503 0.0390463 0.000834378 
18 1 0.00054 0.000916192 0.00230516 5.14548e-06 -0.000119934 1.24811e-05 0 3.33021e-07 -5.42341e-08 0 0.036033 0.0924633 0.147757 
50 1 0.0005 0.000394686 0.00316072 -4.9345e-05 -0.000166527 -3.55142e-05 0 3.43277e-07 5.25802e-08 0 -0.0631716 -0.0418342 -0.0247678 
182 1 0.00046 0.00207731 0.00294912 -3.17454e-05 -0.000144255 -3.24755e-05 0 2.07987e-07 4.4505e-08 0 0.0225466 0.109843 0.0579743 
24 1 0.00052 0.00232964 0.00212117 -1.41959e-06 -8.87043e-05 -2.18025e-05 0 1.82606e-07 4.06051e-08 0 -0.0610429 0.0666343 0.0497894 
189 1 0.00044 0.0029337 0.00285161 3.50109e-05 -0.00012916 -1.80218e-05 0 1.56725e-07 2.97967e-08 0 0.0543688 -0.126999 0.0130969 
66 1 0.00048 0.00326192 0.00201907 -3.46654e-05 -8.11836e-05 6.89641e-07 0 1.23319e-07 -1.2323e-09 0 0.0157734 -0.0667969 0.0215629 
22 1 0.00054 0.0038749 0.00297732 -3.02218e-05 -0.000135469 -2.3041e-06 0 3.00077e-07 1.18777e-08 0 -0.0782147 0.102896 0.0852677 
70 1 0.00048 0.00413381 0.00208991 3.70504e-05 -7.58153e-05 5.90707e-06 0 1.16119e-07 -1.0281e-08 0 0.0275451 0.0750881 0.00439253 
164 1 0.00048 0.0049925 0.00300362 3.07542e-05 -0.00012712 -2.74599e-05 0 1.84382e-07 7.06405e-08 0 -0.0386789 0.327592 0.132177 
69 1 0.00048 0.00498094 0.0019601 -2.23732e-05 -7.23478e-05 2.22706e-06 0 1.13729e-07 -2.9491e-10 0 -0.0272302 -0.0742918 0.0206275 
89 1 0.00044 0.00565136 0.00243788 -2.11247e-06 -9.51278e-05 -3.89066e-06 0 1.06292e-07 1.80642e-08 0 -0.240778 -0.109527 -0.0275691 
44 1 0.0005 0.00624455 0.00307327 -3.67063e-05 -0.000127926 -3.80671e-06 0 2.0434e-07 3.87127e-08 0 -0.013343 -0.139808 0.0773759 
80 1 0.00046 0.00643006 0.002133 3.11799e-05 -9.73375e-05 -1.42249e-06 0 1.32343e-07 2.05755e-08 0 -0.0799954 0.216932 0.0346482 
93 1 0.00042 0.00699752 0.00270885 -2.75116e-05 -0.000114172 1.17232e-05 0 1.10828e-07 5.51471e-09 0 0.35102 0.0200032 -0.0228319 
64 1 0.00048 0.00732375 0.0019092 4.80419e-05 -0.000102651 1.7995e-05 0 1.41647e-07 -3.30493e-09 0 -0.281875 -0.0972435 0.0162241 
90 1 0.00044 0.00773471 0.00291242 1.77683e-05 -0.000123412 -4.39318e-06 0 1.37876e-07 1.06135e-08 0 -0.0756734 0.0494679 0.0315674 
1 1 0.00058 0.00829345 0.00219791 -3.97226e-05 -0.000113449 5.00951e-07 0 2.99446e-07 6.6457e-09 0 0.0259608 0.0008498 0.00266482 
31 1 0.00052 0.00877241 0.00311797 4.55657e-05 -0.000128069 -2.09199e-06 0 2.45798e-07 1.54432e-08 0 -0.0123053 0.0539264 0.0140289 
82 1 0.00046 0.00925475 0.00230726 1.80717e-05 -0.000117953 -1.73234e-05 0 1.57214e-07 2.96352e-08 0 -0.0122038 0.0140134 -0.027906 
14 1 0.00054 0.00981273 0.00312825 -3.93388e-05 -0.000133542 -1.94472e-05 0 2.80661e-07 4.16463e-08 0 -0.00490506 -0.0515503 0.0135323 
39 1 0.0005 0.0101428 0.00222452 2.40231e-05 -0.000108634 -2.61869e-05 0 1.93421e-07 4.68342e-08 0 0.0319019 -0.0313113 0.022844 
162 1 0.00048 0.0107466 0.00309878 2.716e-05 -0.000130562 -1.88946e-05 0 1.99506e-07 1.96536e-08 0 -0.0515831 0.0555295 0.00277248 
55 1 0.0005 0.0111031 0.00228261 -4.78087e-05 -0.000106249 -1.83907e-05 0 1.92455e-07 2.6281e-08 0 -0.0104655 0.0520535 0.0366524 
27 1 0.00052 0.0116679 0.00309707 -4.25165e-05 -0.000135134 -1.46583e-05 0 2.73673e-07 1.25276e-08 0 0.0380914 -0.0453015 0.0174771 
45 1 0.0005 0.0120654 0.00222624 -4.01526e-05 -9.94093e-05 -6.71277e-06 0 1.82036e-07 4.14783e-10 0 0.0159463 -0.0575327 0.0290098 
26 1 0.00052 0.0126359 0.00312724 2.94528e-05 -0.00014433 -1.54015e-05 0 3.0728e-07 -1.27877e-08 0 -0.0304093 0.039429 0.0075118 
10 1 0.00056 0.0131136 0.00223012 4.21294e-05 -0.000101377 1.32699e-06 0 2.75183e-07 -3.79678e-08 0 -0.0241581 0.0617751 0.0681965 
36 1 0.00052 0.0136641 0.00314467 2.4953e-06 -0.000151737 -1.21756e-06 0 3.377e-07 -3.8719e-08 0 0.0623033 -0.0250999 0.0128282 
87 1 0.00044 0.0141754 0.00242014 2.35941e-05 -0.000129673 4.31207e-06 0 1.80279e-07 -2.51389e-08 0 0.0588535 -0.16968 0.0545024 
41 1 0.0005 0.0146412 0.00314087 -2.89305e-05 -0.000155625 1.0353e-05 0 3.13826e-07 -5.41315e-08 0 -0.115899 0.0448532 0.016842 
57 1 0.0005 0.0150884 0.0022417 3.21045e-05 -0.000114429 2.36276e-05 0 2.3466e-07 -7.09197e-08 0 0.0952 0.125548 -0.0119057 
21 1 0.00054 0.0156251 0.00308472 2.08022e-05 -0.000143395 3.79969e-05 0 3.68745e-07 -1.41626e-07 0 -0.0232987 -0.031218 0.0509544 
76 1 0.00046 0.0160127 0.00208888 1.69816e-05 -0.000116921 3.31332e-05 0 1.86252e-07 -8.11199e-08 0 -0.0515523 -0.149384 0.0850648 
71 1 0.00048 0.0165121 0.00284095 -1.31875e-05 -0.000138115 3.11316e-05 0 2.57284e-07 -8.7542e-08 0 -0.0230049 0.0567045 -0.0557321 
81 1 0.00046 0.0169371 0.00207749 -2.13541e-05 -0.000147883 6.41239e-06 0 2.5083e-07 -3.36176e-08 0 -0.0623715 0.0953138 0.00760625 
63 1 0.00048 0.0173666 0.00302259 -2.48084e-05 -0.000141384 -5.15167e-06 0 2.64255e-07 -8.68052e-09 0 0.148461 -0.042589 -0.0240624 
16 1 0.00054 0.0178732 0.00224474 7.17441e-06 -0.000149736 -4.93343e-06 0 4.03157e-07 -1.04762e-08 0 -0.0429082 -0.0952008 0.00609901 
51 1 0.0005 0.0184531 0.00302971 -3.11061e-05 -0.000154732 -1.04665e-05 0 3.24096e-07 2.9293e-09 0 -0.0514506 -0.0334352 -0.00396432 
37 1 0.00052 0.0188712 0.00221009 -6.697e-06 -0.000152933 -1.55469e-05 0 3.71253e-07 1.79775e-08 0 0.0210897 0.0950423 -0.00978545 
6 1 0.00056 0.0194433 0.00304059 1.88296e-05 -0.000156112 -2.53427e-05 0 4.63145e-07 4.0475e-08 0 0.0568634 0.0307644 0.00908468 
13 1 0.00054 0.0198614 0.00218051 2.40593e-05 -0.000147463 -3.6844e-05 0 4.18243e-07 9.49454e-08 0 -0.0228203 -0.0903344 -0.0161247 
11 1 0.00056 0.00132952 0.00346852 4.11056e-07 -0.000166859 -4.01537e-05 0 4.52746e-07 1.03131e-07 0 -0.122708 -0.0178645 0.00185941 
179 1 0.00046 0.00155616 0.00438204 -3.43082e-05 -0.000203033 -3.43398e-05 0 2.71065e-07 4.5237e-08 0 0.139332 -0.02892 0.067986 
160 1 0.00048 0.000531958 0.00405808 4.11872e-05 -0.000188999 -4.92423e-05 0 3.05334e-07 6.00651e-08 0 0.0669799 0.0768937 0.073485 
62 1 0.00048 0.00226555 0.00383457 4.14547e-05 -0.000176048 -2.5962e-05 0 2.86239e-07 4.97105e-08 0 -0.0198505 -0.0463623 0.00760894 
171 1 0.00048 0.00264286 0.00468326 2.79416e-05 -0.000218869 -1.00159e-05 0 3.24118e-07 3.61567e-08 0 -0.0120873 -0.0417041 0.0840583 
178 1 0.00046 0.003149 0.00368881 -1.57031e-06 -0.000170836 -1.34823e-05 0 2.35666e-07 2.67384e-08 0 -0.0670729 0.0571181 0.044716 
163 1 0.00048 0.00361557 0.00470167 5.32063e-06 -0.000227671 -2.93573e-05 0 3.00881e-07 5.13386e-08 0 -0.0463161 -0.0740705 0.0903674 
155 1 0.0005 0.00403252 0.00391627 -2.6529e-06 -0.000186977 -4.96202e-06 0 3.13578e-07 2.35461e-08 0 0.100326 -0.0371282 -0.00168966 
103 1 0.00056 0.00460197 0.00494733 -3.58607e-05 -0.000231005 -1.60405e-05 0 4.79351e-07 8.3784e-08 0 -0.0623178 0.0375716 0.0127754 
108 1 0.00054 0.00501005 0.00397279 -2.13321e-05 -0.000201853 -1.7669e-05 0 4.1142e-07 8.66786e-08 0 0.0366974 0.037979 0.00364025 
106 1 0.00056 0.00567735 0.00479151 -4.97251e-05 -0.000222731 -1.106e-05 0 4.7223e-07 9.20048e-08 0 -0.0266599 -0.0286019 0.0255876 
187 1 0.00046 0.00598482 0.00390412 -2.41619e-05 -0.000191058 -9.98702e-06 0 2.33235e-07 4.65188e-08 0 0.0649075 -0.0413135 0.0403205 
116 1 0.00054 0.00668991 0.00459869 -2.57589e-05 -0.000206606 -1.05189e-05 0 3.94206e-07 5.66676e-08 0 -0.0308156 0.0434729 -0.000783879 
138 1 0.0005 0.00703203 0.00365557 -4.22335e-05 -0.000172948 -1.81546e-06 0 2.67572e-07 2.69242e-08 0 -0.0203176 0.0978586 0.0104365 
95 1 0.00058 0.00775888 0.00462548 4.30556e-05 -0.000204191 -9.76999e-06 0 4.76673e-07 4.92667e-08 0 -0.0140844 -0.0413852 0.0292063 
61 1 0.00048 0.00796849 0.00368186 4.42331e-05 -0.000159318 -3.87719e-06 0 2.24967e-07 1.37978e-08 0 0.0560997 -0.0873385 0.0255408 
153 1 0.0005 0.00878519 0.0040582 -4.39636e-05 -0.000163302 6.63338e-06 0 2.64362e-07 3.48837e-09 0 0.0206343 0.115596 0.0272235 
38 1 0.0005 0.0098101 0.00486699 4.93343e-05 -0.000190179 6.52449e-06 0 3.16329e-07 9.40373e-09 0 -0.067489 0.0702488 0.102468 
75 1 0.00046 0.0096157 0.00399935 4.05756e-05 -0.00015006 -9.01593e-06 0 2.05991e-07 2.32313e-08 0 0.0555005 -0.12572 -0.0305843 
169 1 0.00048 0.00872195 0.00490514 -1.72291e-05 -0.000214233 8.87068e-06 0 2.71886e-07 4.97396e-10 0 -0.03832 0.0370191 0.0557845 
191 1 0.00044 0.0104308 0.00388022 -3.72271e-05 -0.000147951 -2.29107e-05 0 1.76745e-07 1.48316e-08 0 0.0031315 0.107689 0.0161256 
166 1 0.00048 0.0107873 0.00466911 4.50596e-05 -0.000234466 -1.01659e-05 0 2.33062e-07 1.8662e-08 0 0.0459509 0.00996276 0.197017 
88 1 0.00044 0.0112906 0.00394094 1.35023e-05 -0.000150886 -1.12191e-06 0 1.85789e-07 1.36781e-08 0 0.0114515 -0.0980311 -0.0213921 
152 1 0.0005 0.0119491 0.00476036 3.81834e-05 -0.000199622 -4.40038e-05 0 3.42197e-07 -2.46114e-08 0 0.0145243 0.0894936 0.0868816 
85 1 0.00044 0.0121508 0.00389615 3.14585e-06 -0.000153161 -2.12348e-05 0 2.03847e-07 -5.28226e-09 0 -0.0486944 0.0900661 0.00825318 
151 1 0.0005 0.0129197 0.00493107 -2.4127e-05 -0.000212733 -1.69562e-05 0 3.58036e-07 -3.4996e-08 0 0.0512705 -0.076162 0.0233782 
99 1 0.00056 0.0131421 0.00399668 1.0814e-05 -0.000174584 -1.22233e-05 0 4.61732e-07 -3.80583e-08 0 -0.00104398 -0.0899472 0.0401032 
174 1 0.00046 0.0137796 0.00483834 -4.51984e-05 -0.000212629 -3.66018e-06 0 2.84529e-07 -3.14881e-08 0 -0.124989 0.0941161 0.0338436 
110 1 0.00054 0.0141991 0.00402762 1.00341e-06 -0.000180386 5.10424e-06 0 4.35413e-07 -6.34168e-08 0 0.0119247 0.105797 0.0203701 
126 1 0.00052 0.0147242 0.00489035 6.87793e-06 -0.000213657 6.70122e-06 0 4.14878e-07 -6.38023e-08 0 0.00274703 -0.0935269 0.0275048 
25 1 0.00052 0.015168 0.00395651 1.87838e-05 -0.000183564 1.94653e-05 0 4.06189e-07 -7.80074e-08 0 0.0889968 -0.111997 0.0258162 
47 1 0.0005 0.0160948 0.00415394 4.33922e-05 -0.000199107 1.34771e-05 0 3.8447e-07 -4.61211e-08 0 0.00983849 0.144659 -0.0216205 
79 1 0.00046 0.0167926 0.00468945 2.18197e-05 -0.000203318 -8.20338e-07 0 2.94606e-07 -6.74149e-09 0 0.104429 -0.065122 0.0144074 
56 1 0.0005 0.0170445 0.00386991 -2.12721e-05 -0.000207994 -2.03874e-05 0 3.92868e-07 1.39344e-08 0 -0.0315922 -0.169802 -0.0569588 
77 1 0.00046 0.017677 0.00460956 6.56493e-06 -0.000216017 -1.48681e-05 0 3.04543e-07 6.00754e-09 0 -0.0262263 0.0236913 -0.0199638 
130 1 0.00052 0.0179752 0.00377859 9.36883e-06 -0.000189695 -1.60337e-05 0 4.11244e-07 1.04385e-08 0 -0.0490106 0.178204 0.069736 
2 1 0.00058 0.0187121 0.00454036 3.03201e-05 -0.000219088 -2.84305e-05 0 6.10779e-07 2.78229e-08 0 0.220265 -0.00441332 -0.0297488 
73 1 0.00046 0.0194221 0.00392711 1.43967e-05 -0.000199825 -2.90139e-05 0 2.92165e-07 1.99517e-08 0 -0.0721768 -0.179845 0.0723455 
23 1 0.00054 0.0197677 0.00479181 -2.66714e-05 -0.00022334 -3.95352e-05 0 4.86487e-07 4.44237e-08 0 0.0255269 0.0536008 -0.00684777 
3 1 0.00058 0.000809452 0.00500208 1.15215e-05 -0.00022891 -4.21035e-05 0 5.85121e-07 8.69865e-08 0 -0.0428673 -0.0394343 -0.00116754 
135 1 0.0005 0.00121788 0.0059528 1.46596e-05 -0.000280003 -4.04336e-05 0 3.81842e-07 4.7475e-08 0 0.0687406 0.0961521 0.0915889 
197 1 0.00042 0.000348761 0.00650342 -3.99128e-05 -0.000319728 -1.59164e-05 0 2.29111e-07 1.57847e-08 0 -0.00154202 -0.0267696 0.0816657 
58 1 0.0005 0.000104452 0.00571895 -3.26099e-05 -0.000252751 -4.29886e-05 0 3.72099e-07 4.15544e-08 0 0.0205837 0.0797925 0.0637961 
139 1 0.0005 0.00183123 0.00521887 -7.07934e-06 -0.000243601 -2.74864e-05 0 3.81439e-07 4.13585e-08 0 -0.140183 -0.0131553 0.0135025 
109 1 0.00054 0.00215568 0.00646023 -2.06108e-05 -0.000309417 -2.96107e-05 0 4.77233e-07 4.20735e-08 0 -0.00668621 0.0525368 0.0359549 
156 1 0.0005 0.00265057 0.005633 3.54227e-05 -0.000270228 -1.72477e-05 0 3.90849e-07 4.08936e-08 0 0.00137389 -0.0473907 0.022665 
175 1 0.00046 0.00315017 0.00641187 -2.96496e-05 -0.000292608 -1.99717e-05 0 2.9487e-07 4.02464e-08 0 -0.0454586 -0.0480209 0.0337944 
114 1 0.00054 0.00360373 0.00562924 1.90715e-05 -0.000271244 -2.11194e-05 0 4.81978e-07 7.75283e-08 0 0.0397211 0.0423845 -0.00913334 
185 1 0.00046 0.00446303 0.00591284 1.72497e-05 -0.000268231 -2.23294e-05 0 2.87417e-07 5.27015e-08 0 0.0641225 -0.0126716 0.0244087 
102 1 0.00056 0.00537628 0.00576116 2.50127e-05 -0.000261019 -1.16139e-05 0 5.05561e-07 9.44949e-08 0 0.0327919 -0.00834565 0.0333444 
192 1 0.00044 0.00597284 0.00650185 -4.27825e-05 -0.000287369 -1.22878e-05 0 2.47594e-07 4.47544e-08 0 -0.022628 0.0456948 -0.013499 
188 1 0.00044 0.00631055 0.00553453 2.43943e-05 -0.000243299 -1.62652e-05 0 2.35531e-07 4.33128e-08 0 0.00233735 0.00210758 -0.0393077 
149 1 0.0005 0.00681592 0.00637482 -3.07296e-05 -0.000280144 -2.08463e-05 0 3.59752e-07 5.44943e-08 0 -0.0181083 -0.0353144 0.0154743 
131 1 0.00052 0.00722121 0.00549574 -2.4969e-05 -0.000241739 -1.97144e-05 0 3.79495e-07 5.08612e-08 0 0.0458586 -0.0100329 0.0414485 
237 1 0.00052 0.00772308 0.00633462 1.47771e-05 -0.000272128 -8.63467e-06 0 4.06169e-07 4.3453e-08 0 -0.0284954 0.0378708 0.0222257 
159 1 0.00048 0.00819479 0.00555831 -2.62417e-05 -0.000247802 -3.44026e-06 0 3.01969e-07 2.40915e-08 0 -0.00805411 0.0193787 0.0294985 
125 1 0.00052 0.00865766 0.0063302 -3.20614e-05 -0.000264995 -1.74139e-06 0 4.10298e-07 1.26169e-08 0 0.00305873 -0.0379966 -0.00184672 
136 1 0.0005 0.00927484 0.00565755 -4.70071e-05 -0.000255232 -3.04059e-06 0 3.39312e-07 -6.57858e-09 0 0.0483564 -0.0250298 0.00692575 
170 1 0.00048 0.0101346 0.00574085 4.476e-05 -0.000271146 2.73904e-05 0 2.90477e-07 2.93817e-08 0 0.118871 0.044825 0.0960453 
167 1 0.00048 0.0109497 0.00555055 -5.06646e-06 -0.000267146 2.64041e-07 0 2.94635e-07 1.0041e-08 0 -0.0538865 -0.0641524 -0.149425 
123 1 0.00052 0.0114053 0.00651395 -4.22073e-05 -0.000290407 -5.557e-05 0 3.90727e-07 -6.58419e-08 0 0.0196802 0.0585679 0.024363 
168 1 0.00048 0.0117768 0.00567172 2.60985e-05 -0.000257649 -5.41893e-05 0 3.12585e-07 -4.25209e-08 0 -0.0551183 0.0517989 0.0268063 
150 1 0.0005 0.0123561 0.00640881 1.83575e-05 -0.000284156 -3.58495e-05 0 3.56023e-07 -4.58912e-08 0 0.0324438 -0.0679523 0.0301898 
196 1 0.00042 0.0125388 0.00560143 -2.28987e-05 -0.000247043 -3.09992e-05 0 2.11834e-07 -2.5119e-08 0 0.0149405 -0.0669614 0.0517986 
157 1 0.0005 0.013236 0.00609546 2.90979e-05 -0.000267723 -1.18284e-05 0 3.61502e-07 -4.78765e-08 0 -0.0340683 0.0548298 0.032268 
96 1 0.00058 0.0141743 0.00577233 4.28851e-05 -0.00024489 -4.07346e-06 0 5.78416e-07 -8.25851e-08 0 0.092877 -0.0723202 0.0068649 
115 1 0.00054 0.0151975 0.00589411 -1.46308e-05 -0.000246148 -5.34667e-06 0 4.68285e-07 -6.18921e-08 0 -0.0107169 0.0868314 0.0103118 
143 1 0.0005 0.0156948 0.00502069 -7.56683e-06 -0.000216423 1.10956e-05 0 3.75184e-07 -5.00935e-08 0 -0.109985 0.0935264 0.0210758 
141 1 0.0005 0.0160755 0.00623818 -4.83823e-05 -0.000252359 1.30938e-05 0 3.6513e-07 -4.26948e-08 0 0.117241 -0.045393 0.0670133 
146 1 0.0005 0.0165328 0.0055185 2.89194e-05 -0.000221825 1.035e-05 0 3.79798e-07 -2.17546e-08 0 0.000458227 -0.168351 0.00496436 
195 1 0.00044 0.017012 0.00632102 3.21564e-05 -0.00102422 0.00044377 0 3.00864e-07 -3.39512e-08 0 -28.59 -47.6281 1.87478 
190 1 0.00044 0.0173343 0.00537661 -4.85919e-05 -0.00021287 -6.60982e-06 0 2.58635e-07 9.05247e-10 0 -0.051327 0.20605 -0.0331878 
101 1 0.00056 0.0180977 0.00628323 -1.12464e-05 -0.000280522 -1.56567e-05 0 5.34915e-07 9.07652e-09 0 0.103536 0.0527819 0.115475 
147 1 0.0005 0.0181585 0.00535681 3.12852e-05 -0.000212996 -1.62297e-05 0 3.78585e-07 1.17052e-08 0 -0.107526 -0.193771 0.0058892 
172 1 0.00048 0.0193133 0.00636249 2.46256e-05 -0.00023263 -5.9792e-05 0 3.46355e-07 1.55825e-08 0 0.715524 1.41362 0.18359 
144 1 0.0005 0.0190736 0.00549346 -4.44854e-05 -0.000211462 -4.29701e-05 0 3.7706e-07 2.16071e-08 0 -0.237561 0.145862 -0.0178991 
194 1 0.00044 0.00129497 0.00681614 -2.73404e-05 -0.000331782 -3.45835e-05 0 2.61136e-07 2.48209e-08 0 -0.0697369 -0.0387446 -0.000867903 
107 1 0.00054 0.00117349 0.00795999 -3.38667e-05 -0.000347886 -2.23055e-05 0 4.69446e-07 3.28637e-08 0 0.0248482 -0.0103466 -0.00558944 
193 1 0.00044 0.000632028 0.00726069 -4.2113e-05 -0.00034584 -1.95095e-05 0 2.63799e-07 1.86018e-08 0 0.0173744 0.0792938 -0.00500785 
211 1 0.00056 0.000142168 0.0080766 1.49646e-05 -0.000351495 -1.44185e-05 0 5.22846e-07 2.02294e-08 0 -0.056174 0.0092941 0.00711149 
137 1 0.0005 0.00193433 0.00742681 7.74856e-06 -0.000338553 -3.03516e-05 0 3.75515e-07 3.22384e-08 0 0.00537364 -0.0149356 0.0126394 
177 1 0.00046 0.00208808 0.00829972 5.5329e-07 -0.000354136 -2.67768e-05 0 2.81362e-07 2.38172e-08 0 -0.00476909 0.0293063 0.013401 
118 1 0.00054 0.0028644 0.00725685 3.67542e-05 -0.000327659 -2.34201e-05 0 4.67616e-07 5.60988e-08 0 0.0400376 0.00615646 0.0173086 
273 1 0.00048 0.00296046 0.00820037 1.2865e-05 -0.000348748 -2.06954e-05 0 3.15303e-07 3.75079e-08 0 -0.0325925 -0.0219463 0.0190125 
132 1 0.00052 0.0037775 0.00772336 -4.70278e-05 -0.00033275 -1.99799e-05 0 4.07537e-07 5.49682e-08 0 0.0276476 0.0227153 0.00861765 
127 1 0.00052 0.00402571 0.00673772 -1.13161e-05 -0.000298815 -2.06573e-05 0 4.20346e-07 6.89489e-08 0 -0.0475734 0.0161132 0.00875228 
142 1 0.0005 0.00475178 0.00768283 1.72877e-05 -0.000326784 -1.73246e-05 0 3.63959e-07 6.24225e-08 0 0.0261678 -0.0185583 0.0202591 
97 1 0.00058 0.00508136 0.00677442 -4.33679e-05 -0.00029684 -1.42835e-05 0 5.79352e-07 1.08894e-07 0 -0.0147711 -0.0220437 0.025412 
129 1 0.00052 0.00571752 0.00765919 7.98975e-06 -0.00031948 -1.17606e-05 0 4.12552e-07 7.89973e-08 0 -0.00156702 0.00929979 0.0066086 
145 1 0.0005 0.00649232 0.0072242 -4.89198e-05 -0.000301184 -1.71496e-05 0 3.69454e-07 5.9379e-08 0 0.0340476 -0.0252948 0.0102078 
117 1 0.00054 0.00707247 0.00808583 -1.8846e-05 -0.000339731 -2.05271e-05 0 4.3617e-07 5.09088e-08 0 -0.012519 0.0153492 0.0353509 
158 1 0.00048 0.00738941 0.00719488 -2.80691e-05 -0.000303027 -1.49837e-05 0 3.25617e-07 3.77001e-08 0 0.00473683 0.025752 0.0215685 
303 1 0.00042 0.00795395 0.00787419 -4.34141e-05 -0.00033008 -4.90144e-06 0 2.10186e-07 2.68195e-08 0 -0.0108927 -0.0195526 0.0233302 
184 1 0.00046 0.00826914 0.00712106 2.59556e-05 -0.000297716 -3.69767e-07 0 2.93012e-07 3.06156e-08 0 0.0350212 -0.0339376 0.0444568 
111 1 0.00054 0.00887544 0.00784348 -3.81694e-05 -0.000333981 1.41649e-05 0 4.39909e-07 7.88991e-08 0 -0.0397325 0.0190954 0.0344505 
210 1 0.00056 0.00944222 0.00691891 -2.37608e-06 -0.000288158 2.26429e-05 0 5.0051e-07 5.73674e-08 0 0.0111249 0.0522697 0.095622 
233 1 0.00052 0.00986744 0.00782412 -1.57412e-05 -0.00034702 2.19901e-05 0 3.67253e-07 4.70987e-08 0 0.00693588 -0.0246291 -0.00875461 
100 1 0.00056 0.0104295 0.00667026 -1.47472e-05 -0.000272437 7.30783e-06 0 5.15677e-07 2.50867e-08 0 -0.101207 -0.0340727 -0.130243 
213 1 0.00056 0.0107762 0.00823725 4.979e-05 -0.000353402 -5.8183e-06 0 4.7459e-07 -9.63624e-09 0 -0.155133 -0.0394427 -0.0171203 
199 1 0.00042 0.0110395 0.00735844 2.22644e-05 -0.00026868 6.80095e-06 0 2.42505e-07 -2.65228e-10 0 0.214316 0.136542 0.220959 
120 1 0.00052 0.0117541 0.00821446 -4.55597e-05 -0.000352054 -3.18743e-05 0 3.88933e-07 -5.23356e-08 0 -0.000875663 0.0383578 0.000441712 
112 1 0.00054 0.0120654 0.00730455 -4.5975e-05 -0.000322048 -3.65488e-05 0 4.38919e-07 -6.40468e-08 0 0.00367564 -0.0411697 0.0469174 
161 1 0.00048 0.012886 0.00785479 4.23607e-05 -0.000335554 -2.31723e-05 0 3.13757e-07 -4.50251e-08 0 -0.0588292 0.0182924 0.00346411 
186 1 0.00046 0.0130472 0.00699528 4.20701e-05 -0.000306875 -1.90545e-05 0 2.81567e-07 -3.9695e-08 0 0.0209861 0.139124 0.0445977 
104 1 0.00056 0.0138791 0.00781776 -5.04024e-06 -0.000329413 -1.62358e-05 0 5.02585e-07 -7.49327e-08 0 0.0559999 -0.0216073 0.0310054 
148 1 0.0005 0.0139306 0.00680104 1.64328e-05 -0.000301951 -1.68113e-05 0 3.65022e-07 -5.23293e-08 0 -0.0583198 -0.130224 -0.0133011 
154 1 0.0005 0.0148828 0.00792294 -1.6913e-05 -0.000334223 -8.31185e-06 0 3.57541e-07 -5.18366e-08 0 0.0211929 0.0383698 0.0110996 
98 1 0.00058 0.014934 0.00691292 -4.21217e-05 -0.000298764 -1.38247e-05 0 5.74454e-07 -8.18818e-08 0 -0.0319679 0.105509 0.0447427 
128 1 0.00052 0.0158519 0.00811057 -3.94419e-05 -0.000339746 1.85009e-06 0 4.01829e-07 -5.39032e-08 0 0.0607535 -0.0290554 0.0245516 
121 1 0.00052 0.015943 0.00713214 -1.21974e-05 -0.000313125 7.37841e-06 0 4.15152e-07 -5.06653e-08 0 -0.0660075 -0.145904 0.0328573 
124 1 0.00052 0.0167128 0.00770076 -3.70828e-05 -0.000331405 1.9024e-06 0 4.09428e-07 -3.6765e-08 0 -0.0693788 0.0505428 -0.0194315 
119 1 0.00054 0.0175179 0.00715166 -3.33274e-05 -0.000337327 -1.90215e-05 0 4.77995e-07 -8.69301e-09 0 -0.233586 0.139461 -0.0160527 
165 1 0.00048 0.0181869 0.0080555 -3.83096e-05 -0.000356966 -2.36963e-06 0 3.28031e-07 -1.1314e-08 0 0.112362 0.263942 -0.00467191 
113 1 0.00054 0.018535 0.00717424 -2.02095e-05 -0.000345236 1.09311e-07 0 4.84694e-07 -1.24673e-09 0 -0.147809 -0.133816 0.0231556 
173 1 0.00048 0.0192075 0.00778156 -4.84051e-05 -0.000349116 -6.60443e-06 0 3.37602e-07 -3.57101e-09 0 -0.00490932 -0.0213064 -0.0078886 
140 1 0.0005 0.0197872 0.00713017 -3.46879e-05 -0.000348373 -1.35178e-05 0 3.95106e-07 1.29445e-08 0 0.075504 -0.0608234 -0.0108785 
215 1 0.00054 0.00163284 0.00915077 2.66777e-05 -0.000367636 -2.04589e-05 0 4.35693e-07 2.9336e-08 0 -0.0189746 0.013437 -0.00391336 
301 1 0.00042 0.000835661 0.00875877 -3.96098e-06 -0.000362121 -1.72226e-05 0 2.11972e-07 1.0607e-08 0 2.50749e-05 -0.0465416 0.0129837 
248 1 0.0005 0.000766906 0.00962925 -1.72888e-05 -0.000371666 -1.52529e-05 0 3.40994e-07 1.30466e-08 0 -0.00164725 0.00536633 -0.00370244 
229 1 0.00052 0.0023543 0.0099768 2.41907e-05 -0.000383127 -1.85415e-05 0 3.59301e-07 3.35833e-08 0 -0.0209408 0.000563658 0.00196674 
236 1 0.00052 0.00261525 0.00906549 4.87165e-05 -0.000367272 -2.19285e-05 0 3.83495e-07 4.12085e-08 0 0.0253378 -0.00648439 0.0129415 
291 1 0.00046 0.00326477 0.00972712 7.50784e-06 -0.000378623 -1.65182e-05 0 2.49849e-07 3.36744e-08 0 -0.0173041 0.00671524 0.0194979 
286 1 0.00046 0.00351109 0.00889142 -7.08428e-06 -0.000360532 -1.90795e-05 0 2.65634e-07 3.55535e-08 0 0.0123973 0.00270166 0.000670309 
234 1 0.00052 0.00422623 0.00954444 6.12283e-06 -0.000374673 -1.77135e-05 0 3.58393e-07 5.35537e-08 0 0.000431672 -0.00529255 0.0251624 
201 1 0.00058 0.00438983 0.00858049 1.74262e-06 -0.000349781 -1.92121e-05 0 5.37112e-07 8.1877e-08 0 -0.00734975 -0.00365753 0.0137364 
265 1 0.00048 0.00520175 0.00943707 -2.81666e-05 -0.000373282 -1.29451e-05 0 2.79806e-07 4.70179e-08 0 0.000253762 0.0071115 0.0119967 
134 1 0.00052 0.00538548 0.00853042 -1.04316e-05 -0.000346769 -1.1067e-05 0 3.85717e-07 6.94302e-08 0 -0.00394131 0.00628949 0.0259325 
247 1 0.0005 0.0061486 0.00937609 9.49774e-06 -0.000370454 -1.34729e-05 0 3.18522e-07 5.01284e-08 0 0.0125669 -0.00947914 0.0168792 
198 1 0.00042 0.00626618 0.00848838 -4.45245e-05 -0.000352125 -1.77513e-05 0 1.99207e-07 2.94938e-08 0 -0.0128105 -0.00705512 -0.0260414 
264 1 0.00048 0.00697916 0.00902596 3.54547e-06 -0.000365116 -1.45111e-05 0 2.86618e-07 4.25622e-08 0 0.00934422 -0.00091338 0.00630076 
232 1 0.00052 0.00744251 0.00986838 -2.7703e-05 -0.000384511 -7.31878e-06 0 3.46215e-07 6.43962e-08 0 0.00228558 0.0164649 0.0169628 
176 1 0.00046 0.00782332 0.00871297 -4.92713e-05 -0.000359328 -6.02637e-06 0 2.55999e-07 3.95736e-08 0 0.0148452 -0.00366436 0.0232936 
274 1 0.00048 0.0082387 0.00951024 1.26179e-05 -0.000378218 -1.18166e-06 0 2.79803e-07 4.85412e-08 0 -0.021887 -0.0174531 0.00960942 
244 1 0.0005 0.00874336 0.00878756 4.93873e-05 -0.00036334 4.88445e-06 0 3.26444e-07 5.80665e-08 0 0.0375242 -0.00426015 0.0183921 
228 1 0.00052 0.00913855 0.00970198 -4.18982e-05 -0.000382806 3.72509e-06 0 3.51082e-07 6.10658e-08 0 -0.0259069 0.0139386 0.0195151 
203 1 0.00058 0.00975385 0.00885866 -9.33208e-06 -0.000361744 1.20611e-05 0 5.26962e-07 7.09117e-08 0 -0.00302191 0.0124414 0.00702148 
225 1 0.00054 0.0107057 0.00929064 -3.72943e-05 -0.000359622 -6.74681e-06 0 4.43695e-07 -2.66834e-10 0 0.140381 0.0444789 -0.0166347 
284 1 0.00046 0.0114125 0.00989573 1.32074e-05 -0.000373158 -2.19851e-05 0 2.6909e-07 -3.15322e-08 0 -0.0139245 0.0497994 0.0155096 
281 1 0.00046 0.0116498 0.00908298 3.24679e-05 -0.000361516 -2.68836e-05 0 2.70475e-07 -3.57966e-08 0 0.00260892 -0.0531682 0.00589748 
209 1 0.00056 0.0123366 0.00976298 -1.82378e-05 -0.000372165 -2.31986e-05 0 4.90493e-07 -7.34662e-08 0 -0.0524289 -0.0223556 0.00794885 
105 1 0.00056 0.0125873 0.00876385 4.17083e-05 -0.000355065 -2.49e-05 0 4.93053e-07 -7.6498e-08 0 0.0529368 0.0087197 0.0181923 
302 1 0.00042 0.0132535 0.00962717 2.0062e-05 -0.000371207 -2.05273e-05 0 2.07185e-07 -2.90161e-08 0 0.0446872 0.0306045 0.0113812 
133 1 0.00052 0.0135885 0.00880645 -3.30909e-05 -0.000356945 -1.83862e-05 0 3.95529e-07 -5.53485e-08 0 -0.0478814 -0.00793808 0.00905687 