ITEM: TIMESTEP
400740000
ITEM: NUMBER OF ATOMS
400
ITEM: BOX BOUNDS pp ff ff
0 0.02
0 0.04
-0.00065 0.00065
ITEM: ATOMS id type radius x y z vx vy vz fx fy fz omegax omegay omegaz 
74 1 0.00046 0.0013286 0.000444417 3.36586e-05 -7.79491e-06 -2.53806e-07 0 1.21231e-08 -1.58097e-09 0 -0.00017846 -0.150612 0.00921554 
35 1 0.00052 0.000914893 0.00128449 -1.66342e-05 -9.4743e-06 6.17406e-06 0 2.51041e-08 -1.74543e-08 0 0.0440626 0.0419496 -0.00872571 
7 1 0.00056 0.000242504 0.000443437 -3.64628e-05 1.21911e-06 3.70955e-07 0 -1.10284e-08 1.69225e-09 0 0.00107417 0.0324754 -0.0016634 
49 1 0.0005 1.94207e-06 0.00131867 4.93031e-05 -1.20559e-05 -2.85805e-06 0 3.13444e-08 1.50511e-08 0 -0.00176306 -0.0457741 0.0325839 
43 1 0.0005 0.00183749 0.00127958 5.09221e-06 -9.49376e-06 2.35132e-07 0 2.0217e-08 7.41725e-10 0 -0.0420929 -0.0428972 0.00091935 
30 1 0.00052 0.00226953 0.000435983 -1.24497e-05 -5.47801e-06 1.12053e-06 0 6.60896e-09 9.65586e-10 0 -0.00255025 0.132475 0.00597441 
67 1 0.00048 0.00274366 0.00128806 4.63423e-05 -9.23131e-06 1.77332e-06 0 2.35485e-08 -2.54635e-09 0 0.0891679 0.0399524 0.00718951 
17 1 0.00054 0.00324842 0.00051562 4.67087e-05 -4.79138e-06 2.70405e-06 0 1.2134e-08 1.52817e-09 0 -0.00787087 -0.128474 0.00290357 
86 1 0.00044 0.00374762 0.00129096 -1.5404e-05 -9.22635e-06 4.66847e-06 0 1.16808e-08 1.60559e-09 0 -0.0965496 -0.00869629 0.0109774 
84 1 0.00044 0.00460836 0.00119532 -2.0603e-05 -8.09187e-06 2.76067e-06 0 2.51342e-09 4.38894e-09 0 0.0933974 0.0162156 0.000765565 
54 1 0.0005 0.00417428 0.000417236 3.04549e-05 -3.09451e-06 6.25591e-07 0 5.67633e-09 1.09669e-09 0 0.00118351 0.136888 -0.00111717 
46 1 0.0005 0.00511787 0.000469564 4.04467e-05 -6.05349e-06 1.61519e-06 0 1.95421e-09 1.88283e-09 0 -0.00263567 -0.13198 0.00933297 
15 1 0.00054 0.0056728 0.00130799 -2.65834e-05 -1.07568e-05 3.87872e-06 0 1.23023e-09 -1.41417e-10 0 -0.0656384 0.00656461 -0.00182889 
72 1 0.00048 0.00664521 0.00128863 -2.02466e-06 -1.46762e-05 1.0221e-05 0 -7.72867e-10 3.40795e-09 0 0.0373516 -0.00261588 0.0267506 
78 1 0.00046 0.0060233 0.000418383 -1.20537e-05 -4.25827e-06 3.84658e-06 0 9.72352e-10 5.31069e-10 0 0.00705393 0.143742 0.0057631 
52 1 0.0005 0.0069325 0.000444458 3.91278e-05 -1.99071e-06 5.74131e-06 0 -2.26518e-09 8.46086e-10 0 0.00414373 -0.127052 0.0015596 
8 1 0.00056 0.00824719 0.00117582 -1.82355e-06 -1.64313e-05 7.22135e-06 0 1.28955e-08 -6.80247e-09 0 0.0111291 -0.0746437 0.0404681 
92 1 0.00042 0.00779486 0.000364829 3.24564e-05 8.27336e-07 2.9551e-07 0 -1.0945e-09 1.23275e-09 0 0.00416566 0.149125 -0.00863584 
60 1 0.00048 0.00876676 0.000397297 -3.28708e-05 1.10356e-06 7.42476e-06 0 3.57677e-10 -2.15148e-09 0 0.00201823 0.0591165 -0.00896913 
32 1 0.00052 0.009308 0.00138631 3.24568e-05 -1.97391e-05 9.64183e-07 0 3.6625e-08 1.01195e-09 0 -0.0371242 0.143636 0.0362383 
20 1 0.00054 0.00975846 0.000490897 -2.76781e-05 -3.31718e-06 2.28652e-06 0 2.04328e-08 2.63655e-10 0 -0.00353815 -0.0495176 0.00315483 
28 1 0.00052 0.0103907 0.00131254 -4.92787e-05 -1.69207e-05 -8.10567e-08 0 4.16256e-08 7.61564e-09 0 -0.017832 0.0240596 0.0160411 
34 1 0.00052 0.0113828 0.00139189 -4.32784e-06 -1.7233e-05 1.88957e-06 0 3.93187e-08 7.01456e-09 0 0.0323887 -0.0251441 0.00476243 
59 1 0.00048 0.0107666 0.000444087 -3.96086e-06 -4.28982e-06 4.75445e-07 0 1.39375e-08 4.37574e-09 0 -0.00396359 0.0428171 0.00382049 
9 1 0.00056 0.011782 0.000485305 -1.32742e-05 -6.65737e-06 9.50417e-07 0 1.97496e-08 8.51563e-10 0 -0.00227611 -0.032308 0.00775768 
19 1 0.00054 0.0124102 0.00132865 1.95463e-05 -1.42012e-05 2.99913e-06 0 3.59248e-08 -3.75122e-09 0 -0.00253318 0.0250912 0.00749954 
68 1 0.00048 0.0127833 0.000442141 1.3181e-05 -5.6695e-06 2.10252e-06 0 1.28443e-08 -1.98399e-09 0 -0.0087246 0.0324418 0.00366506 
12 1 0.00056 0.0134374 0.00122546 3.75182e-05 -1.03337e-05 2.59392e-06 0 3.29086e-08 -4.54873e-09 0 0.00677262 -0.0250292 0.00115631 
94 1 0.00042 0.0136157 0.000329256 1.89547e-05 -3.9403e-06 2.0874e-06 0 9.5004e-09 -2.03127e-09 0 0.00196319 -0.0370909 0.00584783 
48 1 0.0005 0.0143575 0.00161844 1.99029e-05 -1.35602e-05 5.48378e-06 0 2.19515e-08 2.79153e-09 0 0.00282101 0.0289265 0.016882 
33 1 0.00052 0.0143673 0.000726515 -4.71808e-05 -4.74478e-06 3.96514e-06 0 2.79838e-08 6.43144e-09 0 -0.00396015 0.0282737 0.00319086 
83 1 0.00046 0.0156512 0.00128494 1.72248e-05 -6.87004e-06 2.93745e-06 0 2.65606e-08 1.54252e-09 0 -0.0123679 0.0250199 0.017125 
29 1 0.00052 0.0152294 0.000426345 3.7231e-06 -1.2996e-06 1.88423e-06 0 2.38823e-08 -1.65986e-09 0 0.00223153 -0.0294576 -0.00169809 
91 1 0.00044 0.0165544 0.00131741 3.54547e-05 -1.56702e-05 -1.36685e-06 0 3.42604e-08 7.46582e-09 0 0.0399587 -0.0127144 0.0347961 
53 1 0.0005 0.0161597 0.000503391 -4.85386e-05 -1.51706e-06 6.73593e-08 0 2.10235e-08 4.15286e-09 0 -0.0240243 0.030024 -0.00131074 
65 1 0.00048 0.0178001 0.00133143 -3.92382e-05 -1.16534e-05 3.29254e-07 0 2.32472e-08 5.80615e-09 0 -0.018988 0.00209173 0.0248179 
4 1 0.00058 0.0171623 0.000539131 -3.8784e-05 -8.51235e-07 3.42758e-07 0 2.17898e-08 1.15987e-08 0 -0.0018014 -0.026934 -0.00158082 
5 1 0.00056 0.0182418 0.000485954 3.096e-05 -2.48484e-07 9.10681e-07 0 1.29064e-08 3.59894e-09 0 0.000261621 0.0292521 -0.000517401 
40 1 0.0005 0.018924 0.0012804 6.72355e-06 -1.46049e-05 4.79534e-07 0 3.96355e-08 -4.72057e-10 0 0.0164074 -0.0116071 0.0322304 
42 1 0.0005 0.0192498 0.000430065 -3.72737e-05 5.95402e-07 2.07711e-06 0 2.3778e-09 -5.81229e-09 0 0.000489652 -0.0348206 -0.000796396 
18 1 0.00054 0.000915239 0.00230529 5.14548e-06 -2.00556e-05 7.4732e-06 0 7.25272e-08 -1.67407e-08 0 -0.0434459 0.0837332 0.0243199 
50 1 0.0005 0.000393358 0.00316049 -4.9345e-05 -3.24618e-05 -2.60772e-06 0 7.53262e-08 1.20039e-08 0 -0.0386147 0.0516861 -0.0011364 
182 1 0.00046 0.00207614 0.0029489 -3.17454e-05 -2.65857e-05 4.41875e-06 0 4.3072e-08 5.32822e-09 0 0.116106 -0.0159793 0.00967423 
24 1 0.00052 0.0023289 0.00212101 -1.41959e-06 -1.76841e-05 2.10358e-06 0 3.57122e-08 3.17819e-09 0 -0.0525424 -0.106369 0.0112743 
189 1 0.00044 0.00293265 0.0028515 3.50109e-05 -2.46018e-05 4.222e-06 0 2.9494e-08 6.20846e-09 0 -0.0519445 0.00201058 0.00241628 
66 1 0.00048 0.00326125 0.00201909 -3.46654e-05 -1.958e-05 5.69377e-06 0 2.19012e-08 4.58564e-09 0 0.0127928 0.111671 0.00253369 
22 1 0.00054 0.00387381 0.00297733 -3.02218e-05 -2.46541e-05 7.45766e-06 0 4.16674e-08 2.64151e-08 0 -0.00359437 -0.00867829 0.0208469 
70 1 0.00048 0.00413317 0.00208997 3.70504e-05 -1.89214e-05 4.12539e-06 0 1.70729e-08 1.40642e-08 0 0.0366403 -0.101171 -0.00655163 
164 1 0.00048 0.0049914 0.00300344 3.07542e-05 -4.30999e-05 1.23427e-05 0 1.68256e-08 1.82761e-08 0 0.061733 -0.15428 0.00618509 
69 1 0.00048 0.00498033 0.00196014 -2.23732e-05 -1.90661e-05 5.12178e-06 0 1.29395e-08 5.20838e-09 0 -0.0284164 0.0931543 0.0187208 
89 1 0.00044 0.00565055 0.0024379 -2.11247e-06 -3.24162e-05 1.54598e-05 0 1.03879e-08 6.55465e-09 0 0.142644 -0.0123069 0.0104012 
44 1 0.0005 0.00624348 0.00307331 -3.67063e-05 -4.07399e-05 2.00114e-05 0 2.53569e-08 1.01932e-08 0 -0.0654659 0.0619311 0.00150302 
80 1 0.00046 0.00642922 0.00213303 3.11799e-05 -3.27759e-05 1.34499e-05 0 1.29267e-08 8.41273e-09 0 -0.0294388 -0.0320308 0.00509726 
93 1 0.00042 0.00699656 0.00270898 -2.75116e-05 -3.73253e-05 1.60871e-05 0 1.37529e-08 -2.66929e-09 0 -0.0226312 -0.0202603 -0.00015282 
64 1 0.00048 0.00732291 0.00190937 4.80419e-05 -3.13766e-05 1.82354e-05 0 1.29598e-08 -7.37811e-09 0 0.0076519 0.0380492 0.0075208 
90 1 0.00044 0.00773366 0.00291246 1.77683e-05 -4.00041e-05 1.70844e-05 0 1.80997e-08 -4.61528e-09 0 0.0322343 0.0194078 0.0117021 
1 1 0.00058 0.00829251 0.00219799 -3.97226e-05 -3.55212e-05 1.51612e-05 0 3.82375e-08 -1.88275e-08 0 -0.0105337 -0.0293537 -0.00290961 
31 1 0.00052 0.00877137 0.00311806 4.55657e-05 -3.50599e-05 1.75178e-05 0 3.26498e-08 -1.77289e-08 0 -0.0220388 -0.0129378 -0.0050688 
82 1 0.00046 0.00925377 0.00230719 1.80717e-05 -3.57546e-05 6.92186e-06 0 2.49678e-08 -5.90557e-09 0 0.0248175 0.029755 -0.00991239 
14 1 0.00054 0.00981161 0.00312819 -3.93388e-05 -3.92234e-05 9.41266e-06 0 5.20592e-08 -2.01461e-08 0 -0.00428788 0.00695874 0.00215243 
39 1 0.0005 0.0101419 0.00222438 2.40231e-05 -3.22782e-05 2.25079e-06 0 3.97669e-08 -1.19822e-09 0 0.0140334 -0.0250184 0.00357465 
162 1 0.00048 0.0107455 0.00309867 2.716e-05 -3.68399e-05 3.50554e-06 0 4.36222e-08 -2.43139e-09 0 0.0360451 -0.00393623 -0.00391441 
55 1 0.0005 0.0111022 0.0022825 -4.78087e-05 -3.04221e-05 1.26212e-06 0 5.17753e-08 9.22628e-09 0 -0.0335261 0.0157353 0.0100842 
27 1 0.00052 0.0116668 0.003097 -4.25165e-05 -3.62174e-05 2.06646e-06 0 6.73976e-08 1.21903e-08 0 0.0348726 -0.00107764 -0.00377095 
45 1 0.0005 0.0120646 0.00222622 -4.01526e-05 -2.78331e-05 1.30922e-06 0 4.80513e-08 6.16506e-09 0 -0.0156177 -0.0109073 0.00657101 
26 1 0.00052 0.0126348 0.00312714 2.94528e-05 -3.63951e-05 -6.2449e-06 0 6.95445e-08 1.6216e-08 0 -0.00437376 -0.000956799 0.000148574 
10 1 0.00056 0.0131127 0.00223015 4.21294e-05 -2.46617e-05 -2.88794e-07 0 5.9166e-08 2.76874e-09 0 0.00118801 0.00567542 0.0187041 
36 1 0.00052 0.0136629 0.00314468 2.4953e-06 -3.6707e-05 -1.39579e-06 0 6.66794e-08 1.41732e-08 0 0.0109047 0.0195221 0.00586835 
87 1 0.00044 0.0141744 0.00242021 2.35941e-05 -2.8097e-05 2.14607e-06 0 2.89426e-08 5.98253e-09 0 0.00375173 -0.054765 0.0177374 
41 1 0.0005 0.0146399 0.00314101 -2.89305e-05 -3.61868e-05 4.77526e-06 0 5.66364e-08 6.41643e-09 0 -0.0481907 -0.0223214 0.00806914 
57 1 0.0005 0.0150875 0.00224195 3.21045e-05 -2.30705e-05 9.2519e-06 0 3.43411e-08 1.14408e-09 0 0.0680926 0.037654 0.000584644 
21 1 0.00054 0.015624 0.0030851 2.08022e-05 -3.22796e-05 1.50291e-05 0 6.61215e-08 -1.41799e-09 0 -0.0165665 0.0296601 0.0144266 
76 1 0.00046 0.0160118 0.00208921 1.69816e-05 -2.31363e-05 1.31047e-05 0 2.69773e-08 -7.56474e-10 0 0.00232206 -0.055781 0.0198348 
71 1 0.00048 0.016511 0.00284127 -1.31875e-05 -2.88426e-05 1.43372e-05 0 4.48978e-08 -6.15882e-09 0 -0.0528243 -0.0147183 -0.00879784 
81 1 0.00046 0.0169359 0.0020776 -2.13541e-05 -3.22576e-05 6.34062e-06 0 4.71584e-08 4.33675e-09 0 0.00713937 0.10538 -0.00760938 
63 1 0.00048 0.0173654 0.00302258 -2.48084e-05 -2.87856e-05 4.23355e-06 0 5.19709e-08 4.14108e-09 0 0.0492956 0.0114341 -0.0129676 
16 1 0.00054 0.017872 0.00224473 7.17441e-06 -3.09927e-05 1.68504e-06 0 8.00391e-08 8.25694e-09 0 0.00943326 -0.0865931 0.00595118 
51 1 0.0005 0.0184519 0.00302968 -3.11061e-05 -3.27338e-05 2.0534e-06 0 6.70794e-08 5.53191e-11 0 -0.045856 0.049622 -0.00189323 
37 1 0.00052 0.0188699 0.00221 -6.697e-06 -3.05162e-05 -1.49708e-07 0 8.09105e-08 2.07425e-09 0 -0.0195901 0.0863824 -0.00377101 
6 1 0.00056 0.019442 0.00304044 1.88296e-05 -3.17358e-05 -2.30585e-06 0 9.8775e-08 9.96643e-09 0 0.0354524 -0.0458934 0.00403016 
13 1 0.00054 0.0198602 0.00218025 2.40593e-05 -2.70593e-05 -3.13089e-06 0 9.13046e-08 2.2783e-08 0 0.0244795 -0.0834453 0.00186698 
11 1 0.00056 0.00132819 0.00346825 4.11056e-07 -3.23561e-05 1.70012e-06 0 1.01658e-07 1.65541e-08 0 0.00218652 -0.0560892 0.00386076 
179 1 0.00046 0.00155453 0.00438183 -3.43082e-05 -4.96735e-05 4.149e-06 0 8.2399e-08 1.00907e-08 0 -5.7783e-05 0.0761152 0.0318018 
160 1 0.00048 0.000530442 0.00405773 4.11872e-05 -4.30293e-05 -6.82269e-06 0 8.71339e-08 1.66852e-08 0 0.0519411 0.0257513 0.0312421 
62 1 0.00048 0.00226415 0.00383441 4.14547e-05 -3.34488e-05 8.32862e-06 0 6.50117e-08 2.97746e-09 0 -0.124878 0.0208624 -0.0051242 
171 1 0.00048 0.00264107 0.00468326 2.79416e-05 -5.97808e-05 1.78457e-05 0 9.06176e-08 2.03083e-09 0 -0.0804531 -0.528158 0.0732922 
178 1 0.00046 0.00314762 0.00368873 -1.57031e-06 -3.49365e-05 4.76827e-06 0 4.1866e-08 1.04806e-08 0 0.0466424 -0.00355771 0.00844044 
163 1 0.00048 0.0036137 0.00470148 5.32063e-06 -7.04064e-05 2.34408e-06 0 7.84953e-08 4.34866e-08 0 0.0171882 -0.0551956 0.044826 
155 1 0.0005 0.00403101 0.00391627 -2.6529e-06 -4.38722e-05 1.10923e-05 0 5.0946e-08 2.51686e-08 0 0.00417957 0.0106491 0.0120415 
103 1 0.00056 0.00460006 0.00494728 -3.58607e-05 -7.36898e-05 1.6289e-05 0 1.22541e-07 3.63224e-08 0 0.0337804 0.0589638 0.0124959 
108 1 0.00054 0.00500841 0.00397271 -2.13321e-05 -5.17707e-05 1.76762e-05 0 7.61537e-08 2.48647e-08 0 -0.0559965 -0.00888319 0.0144967 
106 1 0.00056 0.00567551 0.00479152 -4.97251e-05 -6.84115e-05 2.51142e-05 0 1.04671e-07 2.03925e-08 0 -0.00751563 -0.0630976 0.0158454 
187 1 0.00046 0.00598326 0.00390413 -2.41619e-05 -5.19672e-05 2.47117e-05 0 4.52975e-08 1.05219e-08 0 0.0441171 0.00394297 0.0163788 
116 1 0.00054 0.00668819 0.0045987 -2.57589e-05 -6.28213e-05 2.04283e-05 0 8.03466e-08 6.24976e-09 0 0.0097078 0.0603437 -0.00934894 
138 1 0.0005 0.00703062 0.00365564 -4.22335e-05 -4.96893e-05 2.04487e-05 0 4.46403e-08 -1.42773e-09 0 0.00591106 -0.096116 0.0163616 
95 1 0.00058 0.0077572 0.00462552 4.30556e-05 -6.11825e-05 2.04929e-05 0 9.21137e-08 -1.0055e-08 0 -0.00130273 -0.0534777 0.0211452 
61 1 0.00048 0.00796718 0.00368193 4.42331e-05 -4.3742e-05 1.89434e-05 0 3.22395e-08 -1.08486e-08 0 0.00244287 0.0949001 -0.00589267 
153 1 0.0005 0.00878388 0.00405837 -4.39636e-05 -4.28823e-05 2.53816e-05 0 4.20401e-08 -2.58601e-08 0 0.0273689 -0.0711579 0.0300709 
38 1 0.0005 0.00980855 0.00486725 4.93343e-05 -4.55664e-05 4.27092e-05 0 3.6976e-08 -5.92707e-08 0 0.0182212 -0.0808616 0.0612209 
75 1 0.00046 0.00961453 0.00399944 4.05756e-05 -3.23742e-05 2.47799e-05 0 2.6002e-08 -2.58362e-08 0 -0.0205691 0.0750087 -0.0294228 
169 1 0.00048 0.00872016 0.00490535 -1.72291e-05 -6.74033e-05 2.78543e-05 0 5.55295e-08 -2.00367e-08 0 -0.0293651 0.0588184 0.0089178 
191 1 0.00044 0.0104296 0.0038801 -3.72271e-05 -3.55112e-05 4.93455e-06 0 2.51058e-08 -1.17553e-08 0 -0.0191362 -0.0666353 2.75589e-05 
166 1 0.00048 0.0107852 0.00466913 4.50596e-05 -9.92346e-05 1.72097e-05 0 7.91669e-08 -2.59125e-08 0 0.00874057 0.0363824 0.145195 
88 1 0.00044 0.0112893 0.00394105 1.35023e-05 -3.72802e-05 2.24699e-05 0 3.47637e-08 -8.99732e-09 0 -0.0806617 0.0654661 -0.00732472 
152 1 0.0005 0.0119474 0.00476001 3.81834e-05 -5.92789e-05 -2.40809e-05 0 9.70621e-08 2.90107e-08 0 0.0259487 -0.0114068 0.0381738 
85 1 0.00044 0.0121495 0.00389601 3.14585e-06 -3.82694e-05 -9.85362e-06 0 4.84546e-08 1.27268e-08 0 -0.0260316 0.0395669 0.00440505 
151 1 0.0005 0.0129179 0.00493096 -2.4127e-05 -6.53783e-05 -1.0735e-05 0 9.5475e-08 3.14395e-08 0 0.00640964 0.016999 0.0195248 
99 1 0.00056 0.0131406 0.00399661 1.0814e-05 -4.55473e-05 -6.34853e-06 0 1.01645e-07 2.73965e-08 0 -0.00627831 -0.0273572 0.0147949 
174 1 0.00046 0.0137778 0.00483834 -4.51984e-05 -6.28499e-05 -8.50419e-07 0 7.15055e-08 1.80371e-08 0 -0.0542596 -0.014459 0.0168638 
110 1 0.00054 0.0141976 0.00402768 1.00341e-06 -4.77239e-05 1.86126e-06 0 9.03263e-08 1.80406e-08 0 0.0328124 0.0332737 0.00997786 
126 1 0.00052 0.0147224 0.00489045 6.87793e-06 -6.32072e-05 3.92702e-06 0 1.02133e-07 2.15518e-08 0 -0.0042151 0.0147424 0.0167877 
25 1 0.00052 0.0151664 0.00395674 1.87838e-05 -4.72316e-05 9.98371e-06 0 7.83436e-08 5.12816e-09 0 0.0151292 -0.0351858 0.0123995 
47 1 0.0005 0.0160932 0.00415412 4.33922e-05 -5.22448e-05 1.21076e-05 0 7.97775e-08 2.86638e-09 0 -0.00504457 0.0389572 -0.00441952 
79 1 0.00046 0.0167909 0.00468948 2.18197e-05 -5.42294e-05 8.97489e-06 0 6.82721e-08 1.5754e-09 0 0.0475081 -0.00869771 0.00836271 
56 1 0.0005 0.0170427 0.00386978 -2.12721e-05 -5.48956e-05 -3.69103e-07 0 9.40197e-08 1.3644e-08 0 -0.0310873 -0.0321009 -0.0224366 
77 1 0.00046 0.0176752 0.00460949 6.56493e-06 -5.79155e-05 3.4446e-06 0 8.13832e-08 4.72283e-09 0 -0.0019481 0.011221 -0.00812333 
130 1 0.00052 0.0179736 0.0037785 9.36883e-06 -4.65e-05 1.16006e-06 0 9.50145e-08 8.12678e-09 0 -0.012188 0.0357928 0.0278171 
2 1 0.00058 0.0187103 0.0045402 3.03201e-05 -5.77189e-05 -3.43147e-06 0 1.67931e-07 1.17411e-08 0 0.0326754 -0.0122323 -0.0115517 
73 1 0.00046 0.0194205 0.00392694 1.43967e-05 -4.89803e-05 -4.50748e-06 0 7.41651e-08 3.29319e-09 0 -0.035642 0.00358404 0.0271037 
23 1 0.00054 0.0197659 0.00479156 -2.66714e-05 -5.92673e-05 -9.24109e-06 0 1.43067e-07 4.61743e-09 0 0.0331902 0.0211458 0.000339854 
3 1 0.00058 0.000807579 0.0050018 1.15215e-05 -6.33092e-05 -3.13367e-06 0 1.85927e-07 2.24189e-08 0 -0.0414072 -0.022072 0.00646631 
135 1 0.0005 0.00121557 0.00595254 1.46596e-05 -0.000103077 -7.19863e-07 0 1.45071e-07 2.33331e-08 0 0.00620192 -0.0554118 0.062451 
197 1 0.00042 0.00034608 0.00650337 -3.99128e-05 -0.000129498 1.12967e-05 0 8.8769e-08 2.00805e-09 0 0.011126 -0.0649264 0.0615527 
58 1 0.0005 0.000102371 0.00571866 -3.26099e-05 -8.18917e-05 -8.37709e-06 0 1.186e-07 6.73773e-09 0 -0.000514362 0.0780349 0.0443223 
139 1 0.0005 0.00182922 0.00521874 -7.07934e-06 -7.44441e-05 1.31823e-05 0 1.24036e-07 2.18769e-08 0 0.0264849 0.0127889 0.0223408 
109 1 0.00054 0.00215312 0.00646009 -2.06108e-05 -0.00012014 8.26372e-06 0 1.97018e-07 5.25304e-08 0 -0.0616417 -0.000565569 0.0292109 
156 1 0.0005 0.00264833 0.00563295 3.54227e-05 -9.4345e-05 1.60342e-05 0 1.2562e-07 2.85202e-08 0 0.0545222 0.0313939 0.00443541 
175 1 0.00046 0.00314774 0.00641181 -2.96496e-05 -0.000111534 1.45589e-05 0 1.0558e-07 2.94566e-08 0 0.00915879 0.0399618 0.0232171 
114 1 0.00054 0.00360148 0.00562914 1.90715e-05 -9.51662e-05 1.17997e-05 0 1.56442e-07 5.19503e-08 0 -0.0133922 -0.0270767 -0.000860106 
185 1 0.00046 0.0044608 0.00591275 1.72497e-05 -9.60531e-05 1.47427e-05 0 9.16952e-08 2.93257e-08 0 -0.0542311 0.00761383 0.0166158 
102 1 0.00056 0.00537411 0.00576118 2.50127e-05 -9.29962e-05 2.50257e-05 0 1.50559e-07 3.249e-08 0 0.0242417 -0.00199848 0.0225998 
192 1 0.00044 0.00597043 0.00650189 -4.27825e-05 -0.000112304 2.59147e-05 0 8.12121e-08 1.52394e-08 0 -0.0138668 0.0316247 -0.00745093 
188 1 0.00044 0.00630851 0.00553452 2.43943e-05 -8.2559e-05 2.14145e-05 0 6.28756e-08 5.53753e-09 0 -0.0580317 0.00372213 -0.0292199 
149 1 0.0005 0.00681356 0.0063748 -3.07296e-05 -0.000108812 1.82814e-05 0 1.08714e-07 1.53961e-08 0 -0.0106123 -0.0313414 0.00805353 
131 1 0.00052 0.00721918 0.0054957 -2.4969e-05 -8.38061e-05 1.55001e-05 0 9.40782e-08 6.24172e-09 0 0.0298908 -0.00123761 0.0259011 
237 1 0.00052 0.00772079 0.00633469 1.47771e-05 -0.000103833 2.4078e-05 0 1.14174e-07 -3.55807e-09 0 -0.00646107 0.0372631 0.014478 
159 1 0.00048 0.00819271 0.00555842 -2.62417e-05 -8.75919e-05 2.60689e-05 0 7.52122e-08 -1.24668e-08 0 -0.0249815 0.00720547 0.025657 
125 1 0.00052 0.00865542 0.00633032 -3.20614e-05 -9.83579e-05 2.15924e-05 0 1.05139e-07 -9.20749e-09 0 0.0042858 -0.040341 -0.0206264 
136 1 0.0005 0.00927268 0.00565768 -4.70071e-05 -8.84686e-05 2.77163e-05 0 8.28982e-08 -3.37692e-08 0 0.0545467 -0.0236918 0.0394675 
170 1 0.00048 0.0101323 0.00574136 4.476e-05 -9.5104e-05 7.25697e-05 0 7.4023e-08 -7.5764e-08 0 -0.0421114 0.027835 0.0654781 
167 1 0.00048 0.0109474 0.00555067 -5.06646e-06 -0.000100582 2.41487e-05 0 8.70016e-08 -3.68399e-08 0 -0.00530048 -0.0187748 -0.163726 
123 1 0.00052 0.0114029 0.0065136 -4.22073e-05 -9.87678e-05 -1.36918e-05 0 8.85035e-08 6.41555e-09 0 0.0164814 0.0407019 -0.0598688 
168 1 0.00048 0.0117746 0.00567129 2.60985e-05 -9.32912e-05 -3.29374e-05 0 8.95035e-08 2.47905e-08 0 -0.0364215 0.0144692 0.0294985 
150 1 0.0005 0.0123537 0.00640853 1.83575e-05 -0.000100515 -2.59775e-05 0 9.17213e-08 4.25471e-08 0 0.0138831 -0.0446549 0.0124556 
196 1 0.00042 0.0125367 0.0056012 -2.28987e-05 -8.47616e-05 -1.9765e-05 0 6.04065e-08 2.3852e-08 0 -0.00724351 -0.0130185 0.0198282 
157 1 0.0005 0.0132337 0.00609537 2.90979e-05 -9.26001e-05 -9.0034e-06 0 1.01549e-07 4.7014e-08 0 0.0345995 0.0285659 0.0264203 
96 1 0.00058 0.0141723 0.00577234 4.28851e-05 -7.95126e-05 -7.71801e-07 0 1.6605e-07 5.86349e-08 0 0.0218561 -0.0436709 0.00174217 
115 1 0.00054 0.0151954 0.00589412 -1.46308e-05 -8.20051e-05 7.58382e-07 0 1.43397e-07 3.33564e-08 0 -0.0175525 0.0487218 0.0135367 
143 1 0.0005 0.015693 0.00502085 -7.56683e-06 -6.24201e-05 1.15122e-05 0 9.51799e-08 1.51648e-08 0 -0.00142705 -0.0193794 0.014965 
141 1 0.0005 0.0160734 0.00623833 -4.83823e-05 -8.77074e-05 1.66185e-05 0 1.22336e-07 1.98648e-08 0 0.0667025 -0.0331926 0.0451892 
146 1 0.0005 0.0165309 0.00551864 2.89194e-05 -6.42353e-05 1.56218e-05 0 1.12042e-07 8.7258e-09 0 -0.0461177 -0.00292767 0.00157798 
195 1 0.00044 0.0170084 0.00632177 3.21564e-05 0.000451699 -0.00032756 0 1.57832e-07 -3.10778e-08 0 21.3961 35.8109 -1.26481 
190 1 0.00044 0.0173325 0.00537662 -4.85919e-05 -5.77646e-05 7.58356e-06 0 7.08875e-08 -2.3759e-09 0 -0.0231102 0.0234336 -0.00967608 
101 1 0.00056 0.0180953 0.00628315 -1.12464e-05 -0.000101577 4.18484e-06 0 1.79408e-07 1.59829e-08 0 0.00107861 -0.175961 0.0881222 
147 1 0.0005 0.0181567 0.00535671 3.12852e-05 -5.50764e-05 2.57315e-06 0 1.07421e-07 7.18108e-09 0 0.000100559 -0.0191779 0.00101777 
172 1 0.00048 0.0193109 0.00636226 2.46256e-05 -8.8958e-05 -1.43031e-05 0 9.40229e-08 2.53729e-08 0 0.168066 0.364019 0.126694 
144 1 0.0005 0.0190718 0.00549321 -4.44854e-05 -5.1542e-05 -1.14649e-05 0 1.16822e-07 1.05907e-08 0 -0.055774 0.00521368 -0.0149165 
194 1 0.00044 0.00129219 0.00681594 -2.73404e-05 -0.000138713 2.40127e-06 0 1.14645e-07 2.11373e-08 0 -0.00213802 0.0276841 0.00298599 
107 1 0.00054 0.00117054 0.0079599 -3.38667e-05 -0.000158613 1.03688e-05 0 1.98844e-07 3.9898e-08 0 -0.0247503 -0.0642819 -0.00137735 
193 1 0.00044 0.000629112 0.00726061 -4.2113e-05 -0.000152065 1.04548e-05 0 1.13929e-07 1.13104e-08 0 -0.0375415 -0.000780315 0.00304326 
211 1 0.00056 0.000139176 0.00807655 1.49646e-05 -0.000162756 1.17391e-05 0 2.20432e-07 2.26757e-08 0 -0.0119894 0.0774356 0.0156262 
137 1 0.0005 0.00193149 0.00742666 7.74856e-06 -0.000147355 6.12959e-06 0 1.61226e-07 4.18251e-08 0 0.0605777 0.0430194 0.0172868 
177 1 0.00046 0.00208508 0.00829961 5.5329e-07 -0.00016604 7.49145e-06 0 1.19694e-07 3.31564e-08 0 -0.0463035 0.0255655 0.0142156 
118 1 0.00054 0.00286166 0.00725678 3.67542e-05 -0.000138244 1.42592e-05 0 1.98526e-07 5.64822e-08 0 -0.00541215 -0.0491595 0.0155523 
273 1 0.00048 0.00295753 0.00820031 1.2865e-05 -0.0001597 1.53973e-05 0 1.34729e-07 4.12662e-08 0 0.00597416 -0.0104237 0.0227267 
132 1 0.00052 0.00377472 0.00772332 -4.70278e-05 -0.000143682 1.70261e-05 0 1.68186e-07 5.14247e-08 0 -0.0396509 0.0182317 0.00954947 
127 1 0.00052 0.00402322 0.00673765 -1.13161e-05 -0.000117131 1.5974e-05 0 1.52812e-07 4.551e-08 0 0.0443054 -0.00124297 0.0104394 
142 1 0.0005 0.00474905 0.00768283 1.72877e-05 -0.000139542 2.41639e-05 0 1.46257e-07 4.12058e-08 0 0.0198013 -0.0101605 0.0186586 
97 1 0.00058 0.00507888 0.00677443 -4.33679e-05 -0.000117326 2.49257e-05 0 2.00143e-07 5.11862e-08 0 -0.0146271 -0.00912124 0.016817 
129 1 0.00052 0.00571483 0.00765925 7.98975e-06 -0.000134997 3.0753e-05 0 1.55916e-07 3.62856e-08 0 -0.00112534 0.00207763 0.00612639 
145 1 0.0005 0.00648978 0.00722421 -4.89198e-05 -0.000122635 2.30362e-05 0 1.27597e-07 2.19706e-08 0 0.0238961 -0.0137237 0.00247495 
117 1 0.00054 0.00706957 0.00808584 -1.8846e-05 -0.000159369 2.08864e-05 0 1.64414e-07 1.63578e-08 0 0.00363525 0.0286785 0.0285874 
158 1 0.00048 0.00738685 0.00719491 -2.80691e-05 -0.000127322 2.12533e-05 0 1.08155e-07 7.60583e-09 0 -0.0158107 0.0139374 0.0155959 
303 1 0.00042 0.00795113 0.00787432 -4.34141e-05 -0.000152767 2.91752e-05 0 7.7911e-08 -3.62133e-10 0 -0.00433951 -0.0351487 0.0164225 
184 1 0.00046 0.00826662 0.00712122 2.59556e-05 -0.000122948 3.0266e-05 0 8.93531e-08 -7.04812e-09 0 0.0256 -0.0160082 0.0408669 
111 1 0.00054 0.00887256 0.0078438 -3.81694e-05 -0.000161567 4.46549e-05 0 1.76208e-07 -2.65417e-08 0 -0.0125443 0.0259533 0.0349936 
210 1 0.00056 0.00943974 0.00691928 -2.37608e-06 -0.000121657 4.55415e-05 0 1.44194e-07 -4.79378e-08 0 -0.00898948 0.0364912 0.118197 
233 1 0.00052 0.00986441 0.00782447 -1.57412e-05 -0.000183536 4.12916e-05 0 1.80371e-07 -2.28267e-08 0 0.0166625 -0.028163 -0.0261624 
100 1 0.00056 0.0104272 0.00667062 -1.47472e-05 -9.30113e-05 7.70123e-05 0 9.36206e-08 -1.32902e-07 0 0.0317772 -0.0446486 -0.0694244 
213 1 0.00056 0.0107732 0.00823721 4.979e-05 -0.000182147 -1.99158e-05 0 2.02351e-07 6.04525e-08 0 -0.011667 0.0263931 -0.0554643 
199 1 0.00042 0.0110376 0.00735861 2.22644e-05 3.60184e-05 1.83368e-05 0 -6.83842e-08 -9.25038e-09 0 -0.0759373 0.0358904 -0.267391 
120 1 0.00052 0.0117511 0.00821419 -4.55597e-05 -0.000168846 -3.65128e-05 0 1.44531e-07 5.73534e-08 0 0.0102197 -0.0288428 0.0292038 
112 1 0.00054 0.0120627 0.00730426 -4.5975e-05 -0.000122864 -2.83953e-05 0 9.97886e-08 5.0737e-08 0 0.00504193 -0.0110815 0.051633 
161 1 0.00048 0.0128831 0.00785462 4.23607e-05 -0.000148371 -1.49298e-05 0 1.05092e-07 3.26444e-08 0 0.0269972 0.0266159 0.0162525 
186 1 0.00046 0.0130446 0.00699514 4.20701e-05 -0.000120529 -1.31807e-05 0 7.81621e-08 3.55021e-08 0 -0.0441391 0.0202849 0.0349676 
104 1 0.00056 0.0138763 0.00781767 -5.04024e-06 -0.000145859 -5.59963e-06 0 1.80173e-07 5.19846e-08 0 0.0198167 -0.0215952 0.0250973 
148 1 0.0005 0.0139281 0.00680094 1.64328e-05 -0.000119668 -7.90519e-06 0 1.13832e-07 3.82306e-08 0 -0.0207131 -0.00285558 -0.0042511 
154 1 0.0005 0.01488 0.00792293 -1.6913e-05 -0.000151393 2.62689e-06 0 1.34619e-07 3.61729e-08 0 -0.00704461 0.0245288 0.0162881 
98 1 0.00058 0.0149315 0.00691286 -4.21217e-05 -0.000119671 -3.02763e-06 0 1.97159e-07 5.50458e-08 0 0.00478233 -0.00191998 0.0310346 
128 1 0.00052 0.0158489 0.00811064 -3.94419e-05 -0.000158741 1.22188e-05 0 1.62412e-07 3.4398e-08 0 0.0483104 -0.0136801 0.0247925 
121 1 0.00052 0.0159403 0.00713225 -1.21974e-05 -0.000131387 1.41497e-05 0 1.53651e-07 3.1472e-08 0 -0.0541397 -0.00568606 0.0306096 
124 1 0.00052 0.01671 0.00770083 -3.70828e-05 -0.00014837 1.14046e-05 0 1.66877e-07 2.65711e-08 0 0.0230696 -0.0215797 -0.0179949 
119 1 0.00054 0.017515 0.00715155 -3.33274e-05 -0.000146636 -3.12515e-07 0 1.92591e-07 2.38277e-08 0 0.237965 -0.154793 0.00677865 
165 1 0.00048 0.0181838 0.00805555 -3.83096e-05 -0.000166527 1.55103e-05 0 1.48205e-07 1.56659e-08 0 -0.0318454 -0.0383751 0.00972102 
113 1 0.00054 0.0185321 0.00717431 -2.02095e-05 -0.000151468 1.70291e-05 0 2.01112e-07 4.86171e-09 0 -0.0111424 0.146682 0.0148498 
173 1 0.00048 0.0192046 0.00778158 -4.84051e-05 -0.00015896 1.36773e-05 0 1.4016e-07 6.19647e-09 0 0.0550194 -0.102393 0.00211863 
140 1 0.0005 0.0197842 0.00713013 -3.46879e-05 -0.000153457 1.01862e-05 0 1.68056e-07 8.83583e-09 0 0.043202 -0.00413603 -0.00173464 
215 1 0.00054 0.00162968 0.0091507 2.66777e-05 -0.00018577 1.04826e-05 0 1.84142e-07 4.98957e-08 0 0.0025221 0.0420476 0.00266297 
301 1 0.00042 0.000832561 0.00875873 -3.96098e-06 -0.000179624 1.27147e-05 0 8.87237e-08 1.8883e-08 0 0.074601 -0.0180061 0.0200796 
248 1 0.0005 0.00076369 0.00962922 -1.72888e-05 -0.000195712 1.36811e-05 0 1.41153e-07 3.45067e-08 0 -0.0483778 -0.0179338 -0.00276142 
229 1 0.00052 0.00235099 0.00997675 2.41907e-05 -0.000206417 9.58629e-06 0 1.57347e-07 4.72761e-08 0 0.00205606 0.00760389 0.0104374 
236 1 0.00052 0.00261212 0.00906542 4.87165e-05 -0.000183073 1.16665e-05 0 1.65288e-07 4.99672e-08 0 0.0117675 -0.0441958 0.0173214 
291 1 0.00046 0.00326152 0.00972711 7.50784e-06 -0.00019851 1.87199e-05 0 1.10491e-07 3.47827e-08 0 -0.0363289 0.00602623 0.0290948 
286 1 0.00046 0.00350803 0.0088914 -7.08428e-06 -0.000174494 1.82997e-05 0 1.15301e-07 3.61113e-08 0 0.0202847 0.0446247 0.00458973 
234 1 0.00052 0.00422303 0.00954445 6.12283e-06 -0.00019293 2.20154e-05 0 1.60566e-07 4.82365e-08 0 0.00284278 -0.0200509 0.0340513 
201 1 0.00058 0.00438688 0.00858048 1.74262e-06 -0.000162521 2.19441e-05 0 2.31235e-07 6.80749e-08 0 0.00841297 -0.0433632 0.0176833 
265 1 0.00048 0.00519856 0.00943715 -2.81666e-05 -0.000189998 3.28378e-05 0 1.25539e-07 3.65811e-08 0 0.000235624 0.0186607 0.0187715 
134 1 0.00052 0.00538256 0.0085305 -1.04316e-05 -0.000160473 3.31983e-05 0 1.62797e-07 4.33029e-08 0 -0.0148279 0.0447028 0.0249353 
247 1 0.0005 0.00614544 0.00937619 9.49774e-06 -0.000187576 3.41078e-05 0 1.39471e-07 3.3349e-08 0 0.0194085 -0.0191402 0.0135679 
198 1 0.00042 0.00626319 0.00848843 -4.45245e-05 -0.000168099 2.74909e-05 0 8.07178e-08 1.5462e-08 0 -0.0117469 -0.0452066 -0.024738 
264 1 0.00048 0.00697604 0.00902605 3.54547e-06 -0.000182847 2.97435e-05 0 1.18513e-07 1.46125e-08 0 -0.00841987 0.0131118 0.00654201 
232 1 0.00052 0.00743921 0.00986856 -2.7703e-05 -0.000203665 4.0041e-05 0 1.44359e-07 1.50048e-08 0 0.00661486 -0.00554398 0.0123013 
176 1 0.00046 0.00782024 0.00871311 -4.92713e-05 -0.000179752 3.18821e-05 0 1.02964e-07 9.08905e-10 0 0.00962176 -0.0116679 0.0208721 
274 1 0.00048 0.00823544 0.00951042 1.26179e-05 -0.000198459 3.45035e-05 0 1.13289e-07 -4.3833e-09 0 -0.00952977 -0.000398309 -0.000551875 
244 1 0.0005 0.00874022 0.00878779 4.93873e-05 -0.000186816 3.57426e-05 0 1.34176e-07 -1.49296e-08 0 0.0078438 0.00449357 0.00966037 
228 1 0.00052 0.00913525 0.00970215 -4.18982e-05 -0.000201739 2.66692e-05 0 1.45328e-07 -2.36017e-08 0 -0.002558 0.0068803 0.0152434 
203 1 0.00058 0.00975074 0.00885889 -9.33208e-06 -0.000183734 2.71733e-05 0 2.10262e-07 2.54017e-09 0 -0.00966136 -0.00154389 -0.0108586 
225 1 0.00054 0.0107026 0.00929062 -3.72943e-05 -0.000175439 -1.06988e-05 0 1.69992e-07 3.29114e-08 0 0.00593234 0.0010047 -0.0175757 
284 1 0.00046 0.0114093 0.00989555 1.32074e-05 -0.000196131 -2.23833e-05 0 1.13768e-07 8.05953e-09 0 0.00820838 0.00392976 0.0189756 
281 1 0.00046 0.0116467 0.00908276 3.24679e-05 -0.000184562 -2.75934e-05 0 1.18426e-07 2.25696e-08 0 -0.0143182 0.00783708 -9.80777e-06 
209 1 0.00056 0.0123334 0.0097628 -1.82378e-05 -0.000197 -2.02003e-05 0 2.03419e-07 3.78146e-08 0 0.0225509 -0.00463681 0.0126175 
105 1 0.00056 0.0125843 0.00876366 4.17083e-05 -0.000176583 -1.90525e-05 0 2.03358e-07 4.77954e-08 0 -0.029632 0.0102526 0.0198809 
302 1 0.00042 0.0132503 0.00962703 2.0062e-05 -0.00019793 -1.37681e-05 0 8.5371e-08 1.86588e-08 0 0.0145931 0.00630309 0.0199529 
133 1 0.00052 0.0135854 0.00880634 -3.30909e-05 -0.000176744 -9.63848e-06 0 1.58249e-07 3.98594e-08 0 -0.012896 -0.0101371 0.0171394 