# vtk DataFile Version 2.0
Generated by lpp.py
ASCII
DATASET POLYDATA
POINTS 400 float
0.00132429 0.000443469 3.36586e-05
0.000908687 0.00128633 -1.66342e-05
0.000243009 0.000443164 -3.64628e-05
0.00183162 0.00127747 5.09221e-06
0.0022667 0.000435582 -1.24497e-05
0.00273798 0.00128761 4.63423e-05
0.00324578 0.000515976 4.67087e-05
0.0037422 0.00129196 -1.5404e-05
0.00460378 0.00119568 -2.0603e-05
0.00417248 0.000417348 3.04549e-05
0.00511557 0.000469823 4.04467e-05
0.00566761 0.00130833 -2.65834e-05
0.00663925 0.00128974 -2.02466e-06
0.00602138 0.000418931 -1.20537e-05
0.00693119 0.000445513 3.91278e-05
0.0082418 0.00117625 -1.82355e-06
0.00779485 0.000364309 3.24564e-05
0.0087669 0.000398808 -3.28708e-05
0.00929987 0.00138466 3.24568e-05
0.00975709 0.000490924 -2.76781e-05
0.0103843 0.00131147 -4.92787e-05
0.0113759 0.001392 -4.32784e-06
0.0107646 0.000443751 -3.96086e-06
0.0117792 0.00048559 -1.32742e-05
0.0124043 0.00132994 1.95463e-05
0.0127805 0.00044281 1.3181e-05
0.0134323 0.0012262 3.75182e-05
0.0136131 0.000330044 1.89547e-05
0.0143498 0.00162016 1.99029e-05
0.0143637 0.000727425 -4.71808e-05
0.0156448 0.00128571 1.72248e-05
0.0152269 0.000426934 3.7231e-06
0.016547 0.00131559 3.54547e-05
0.0161571 0.000503657 -4.85386e-05
0.017792 0.00133099 -3.92382e-05
0.0171607 0.00053797 -3.8784e-05
0.0182408 0.00048609 3.096e-05
0.0199941 0.00131556 4.93031e-05
0.0189162 0.00128032 6.72355e-06
0.0192496 0.000430948 -3.72737e-05
0.000903081 0.0023074 5.14548e-06
0.000375517 0.00315704 -4.9345e-05
0.00206005 0.00294612 -3.17454e-05
0.00231865 0.00211899 -1.41959e-06
0.00291812 0.00285014 3.50109e-05
0.00325159 0.00201952 -3.46654e-05
0.0038586 0.00297752 -3.02218e-05
0.00412417 0.00209077 3.70504e-05
0.00497577 0.0030009 3.07542e-05
0.00497183 0.00196089 -2.23732e-05
0.00563936 0.00243836 -2.11247e-06
0.00622873 0.00307388 -3.67063e-05
0.00641772 0.00213343 3.11799e-05
0.00698338 0.00271065 -2.75116e-05
0.00731171 0.00191201 4.80419e-05
0.00771934 0.00291352 1.77683e-05
0.00827985 0.00219956 -3.97226e-05
0.0087573 0.00311988 4.55657e-05
0.00924053 0.0023068 1.80717e-05
0.009796 0.0031284 -3.93388e-05
0.0101294 0.00222305 2.40231e-05
0.0107302 0.00309806 2.716e-05
0.0110897 0.00228148 -4.78087e-05
0.0116509 0.00309634 -4.25165e-05
0.0120532 0.00222715 -4.01526e-05
0.0126177 0.00312476 2.94528e-05
0.0131012 0.00222945 4.21294e-05
0.0136451 0.00314414 2.4953e-06
0.01416 0.00242058 2.35941e-05
0.0146219 0.00314244 -2.89305e-05
0.0150749 0.00224499 3.21045e-05
0.0156077 0.00309005 2.08022e-05
0.0159988 0.00209359 1.69816e-05
0.0164957 0.00284549 -1.31875e-05
0.0169198 0.00207897 -2.13541e-05
0.0173499 0.00302219 -2.48084e-05
0.017856 0.00224458 7.17441e-06
0.0184352 0.00302927 -3.11061e-05
0.0188537 0.00220893 -6.697e-06
0.0194252 0.00303858 1.88296e-05
0.0198443 0.00217652 2.40593e-05
0.00130984 0.00346501 4.11056e-07
0.00153176 0.00437942 -3.43082e-05
0.000509085 0.00405311 4.11872e-05
0.000781236 0.00499824 1.15215e-05
0.0022447 0.00383262 4.14547e-05
0.00261577 0.0046837 2.79416e-05
0.00312848 0.00368786 -1.57031e-06
0.00358765 0.00469921 5.32063e-06
0.00400982 0.00391643 -2.6529e-06
0.00457334 0.0049466 -3.58607e-05
0.00498555 0.00397166 -2.13321e-05
0.00564989 0.00479153 -4.97251e-05
0.00596182 0.00390431 -2.41619e-05
0.00666444 0.00459886 -2.57589e-05
0.00701136 0.00365682 -4.22335e-05
0.00773404 0.00462648 4.30556e-05
0.00794961 0.00368326 4.42331e-05
0.0087662 0.00406164 -4.39636e-05
0.00978826 0.00487385 4.93343e-05
0.00959907 0.00400245 4.05756e-05
0.00869555 0.00490893 -1.72291e-05
0.0104137 0.00387935 -3.72271e-05
0.0107555 0.00467078 4.50596e-05
0.0112724 0.00394403 1.35023e-05
0.0119233 0.00475413 3.81834e-05
0.0121317 0.00389308 3.14585e-06
0.0128921 0.00492815 -2.4127e-05
0.0131202 0.00399467 1.0814e-05
0.0137525 0.00483784 -4.51984e-05
0.0141762 0.00402817 1.00341e-06
0.0146976 0.00489105 6.87793e-06
0.0151448 0.0039593 1.87838e-05
0.0160697 0.00415558 4.33922e-05
0.0167671 0.00468924 2.18197e-05
0.0170189 0.00386751 -2.12721e-05
0.0176501 0.00460832 6.56493e-06
0.0179521 0.00377708 9.36883e-06
0.018685 0.00453804 3.03201e-05
0.019398 0.00392476 1.43967e-05
0.0197401 0.00478808 -2.66714e-05
0.00118255 0.00594929 1.46596e-05
0.000307847 0.0065028 -3.99128e-05
7.28394e-05 0.00571471 -3.26099e-05
0.00180096 0.00521767 -7.07934e-06
0.00211691 0.00645883 -2.06108e-05
0.00261672 0.00563283 3.54227e-05
0.00311318 0.00641073 -2.96496e-05
0.00357014 0.00562823 1.90715e-05
0.0044298 0.00591201 1.72497e-05
0.00534379 0.00576115 2.50127e-05
0.00593634 0.00650226 -4.27825e-05
0.00628009 0.00553421 2.43943e-05
0.0067801 0.00637441 -3.07296e-05
0.00719071 0.00549517 -2.4969e-05
0.00768798 0.00633599 1.47771e-05
0.00816348 0.00556064 -2.62417e-05
0.00862345 0.00633237 -3.20614e-05
0.00924279 0.00566129 -4.70071e-05
0.0101009 0.00575283 4.476e-05
0.0109146 0.0055537 -5.06646e-06
0.01137 0.00651045 -4.22073e-05
0.0117427 0.00566421 2.60985e-05
0.0123205 0.00640297 1.83575e-05
0.0125065 0.00559664 -2.28987e-05
0.0132019 0.00609263 2.90979e-05
0.0141428 0.00577109 4.28851e-05
0.0151657 0.00589298 -1.46308e-05
0.0156678 0.00502216 -7.56683e-06
0.0160429 0.00623949 -4.83823e-05
0.0165047 0.00551967 2.89194e-05
0.0169739 0.00632256 3.21564e-05
0.0173075 0.0053764 -4.85919e-05
0.0180621 0.00628202 -1.12464e-05
0.018132 0.00535534 3.12852e-05
0.0192771 0.00635931 2.46256e-05
0.0190474 0.0054899 -4.44854e-05
0.00125259 0.00681334 -2.73404e-05
0.0011284 0.00795886 -3.38667e-05
0.000587489 0.00725968 -4.2113e-05
9.64674e-05 0.0080761 1.49646e-05
0.00189076 0.0074249 7.74856e-06
0.00204221 0.00829822 5.5329e-07
0.0028224 0.00725591 3.67542e-05
0.00291535 0.00819983 1.2865e-05
0.00373446 0.00772287 -4.70278e-05
0.00398761 0.00673788 -1.13161e-05
0.00470934 0.0076822 1.72877e-05
0.00504331 0.00677353 -4.33679e-05
0.00567591 0.00765956 7.98975e-06
0.00645325 0.00722425 -4.89198e-05
0.00702804 0.00808633 -1.8846e-05
0.00734994 0.00719564 -2.80691e-05
0.00791033 0.00787652 -4.34141e-05
0.00823039 0.00712392 2.59556e-05
0.00883034 0.00784886 -3.81694e-05
0.00940372 0.00692536 -2.37608e-06
0.00981896 0.00782959 -1.57412e-05
0.0103955 0.00668222 -1.47472e-05
0.0107279 0.00823318 4.979e-05
0.0110259 0.00736086 2.22644e-05
0.0117077 0.00820754 -4.55597e-05
0.0120261 0.00729853 -4.5975e-05
0.0128427 0.00785095 4.23607e-05
0.0130082 0.00699162 4.20701e-05
0.0138363 0.00781524 -5.04024e-06
0.013892 0.00679822 1.64328e-05
0.0148393 0.00792176 -1.6913e-05
0.0148956 0.00691101 -4.21217e-05
0.0158074 0.00811085 -3.94419e-05
0.0159027 0.0071329 -1.21974e-05
0.0166698 0.00770142 -3.70828e-05
0.0174748 0.0071501 -3.33274e-05
0.0181407 0.00805617 -3.83096e-05
0.0184908 0.00717519 -2.02095e-05
0.0191623 0.007782 -4.84051e-05
0.0197422 0.00712975 -3.46879e-05
0.00158467 0.00914992 2.66777e-05
0.000788312 0.00875825 -3.96098e-06
0.000717802 0.00962897 -1.72888e-05
0.00230381 0.00997611 2.41907e-05
0.00256739 0.00906467 4.87165e-05
0.00321513 0.00972722 7.50784e-06
0.00346427 0.00889113 -7.08428e-06
0.00417724 0.0095444 6.12283e-06
0.00434456 0.00858014 1.74262e-06
0.00515304 0.0094382 -2.81666e-05
0.00534046 0.00853137 -1.04316e-05
0.00610018 0.00937777 9.49774e-06
0.00622034 0.00848908 -4.45245e-05
0.00693137 0.00902758 3.54547e-06
0.00739213 0.00987176 -2.7703e-05
0.00777578 0.00871563 -4.92713e-05
0.00818922 0.00951357 1.26179e-05
0.00869473 0.00879125 4.93873e-05
0.00908836 0.00970434 -4.18982e-05
0.00970574 0.00886148 -9.33208e-06
0.0106588 0.00928827 -3.72943e-05
0.0113631 0.0098918 1.32074e-05
0.0116015 0.00907788 3.24679e-05
0.0122871 0.00975888 -1.82378e-05
0.0125401 0.00875958 4.17083e-05
0.0132041 0.00962363 2.0062e-05
0.0135415 0.00880341 -3.30909e-05
0.0140263 0.0095985 -4.57402e-05
0.0145308 0.00882722 -3.07794e-05
0.0149026 0.00967009 4.85236e-05
0.0154798 0.00898082 -3.2558e-05
0.0157962 0.00993981 -4.73944e-05
0.0164519 0.00883795 -2.5672e-05
0.0166887 0.00969312 -3.5681e-05
0.0173078 0.00835097 2.81917e-06
0.017412 0.00923205 -4.5525e-06
0.0183066 0.00993139 1.70983e-05
0.0183293 0.00898666 -3.29151e-05
0.0199428 0.00908489 -3.41589e-05
0.0191352 0.00955473 4.46827e-05
0.0191357 0.0086112 -3.50995e-05
0.00159525 0.0115947 -2.75196e-05
0.00141135 0.0100974 -3.628e-05
0.000992805 0.0108598 -3.81409e-05
8.54439e-05 0.0110252 4.26166e-05
0.00190318 0.0107561 2.8646e-05
0.00254114 0.0113923 1.79805e-07
0.00295979 0.0105896 -3.0738e-05
0.00351597 0.0113162 1.32908e-05
0.00385593 0.0104451 3.19371e-06
0.00447952 0.0112763 -4.05009e-05
0.00487498 0.0103858 2.58338e-05
0.00541983 0.0112348 5.57899e-06
0.0057926 0.0102259 3.55182e-05
0.00632364 0.0110334 -2.60959e-05
0.00660741 0.0101992 1.90003e-05
0.00725483 0.010831 2.40728e-05
0.00803646 0.0115381 -1.09524e-05
0.00821371 0.0105099 -2.41459e-05
0.00919657 0.0106625 1.14157e-05
0.00898606 0.011559 -2.28614e-05
0.00995995 0.0100986 7.96265e-06
0.0100443 0.0110609 4.36203e-05
0.0107626 0.0104728 4.40746e-05
0.0109639 0.0113623 4.26806e-05
0.0117083 0.0107223 1.59016e-05
0.0126393 0.0106141 -4.05226e-06
0.013114 0.0112614 -3.49974e-05
0.0135654 0.0104311 -2.12959e-05
0.0139277 0.0112393 -3.47829e-05
0.0144813 0.0103607 -6.10015e-06
0.014839 0.0112145 -4.9699e-05
0.0158027 0.0110012 -3.49785e-05
0.0165771 0.0105624 -3.04875e-05
0.0166171 0.0115682 2.14731e-05
0.0173106 0.0110703 4.23831e-06
0.0174473 0.0102047 1.54215e-05
0.0182863 0.0109065 -4.02054e-05
0.0190715 0.01043 -1.5365e-05
0.0192053 0.01131 -1.60515e-05
0.0199277 0.0101229 -4.17269e-05
0.00137954 0.012654 1.39627e-05
0.000675888 0.011801 -9.96495e-06
0.000439646 0.0127302 2.195e-05
0.0022537 0.0123213 1.50647e-05
0.00293308 0.0130599 -2.83946e-05
0.00317883 0.0121453 2.84116e-05
0.00403126 0.0129444 -8.8818e-06
0.00405811 0.0120341 -1.71454e-05
0.00493263 0.0130899 4.3363e-05
0.0050311 0.0121543 3.19528e-05
0.00578204 0.012903 -3.24457e-07
0.00605342 0.0119622 1.74786e-05
0.00664346 0.0126486 -2.9504e-05
0.00706685 0.0117966 2.61725e-05
0.00755658 0.0127004 -7.28073e-06
0.00854032 0.0124187 2.21972e-05
0.00928085 0.013009 3.4178e-05
0.00980908 0.0119902 -3.43726e-05
0.010122 0.0129248 2.4284e-05
0.0107459 0.0122959 4.99362e-05
0.0111401 0.0131368 1.79808e-05
0.0118996 0.0117296 3.01021e-05
0.012057 0.0127999 -4.81269e-05
0.0128085 0.0119903 3.49515e-06
0.0131094 0.0128307 8.09002e-06
0.0137577 0.0121014 -1.27408e-05
0.0142476 0.012971 1.51186e-05
0.0147163 0.0121957 -2.52694e-05
0.015456 0.0127975 -2.24734e-05
0.015578 0.0118899 -4.84058e-07
0.0163129 0.0124316 2.73575e-05
0.0171276 0.0123298 2.6071e-05
0.0172208 0.0131972 -3.7354e-05
0.0178791 0.0118428 -4.54593e-05
0.0179517 0.0127929 -4.8395e-05
0.0186925 0.0130942 7.82155e-06
0.0188421 0.0121957 -1.47463e-05
0.0195334 0.0129237 -3.72359e-05
0.0197797 0.0120501 -4.13942e-05
0.00109354 0.0135729 -4.1589e-05
0.000939096 0.0145446 -1.31753e-05
0.000160891 0.0136119 -1.17246e-06
0.00188826 0.0145656 -5.27218e-06
0.00199901 0.0133427 2.70269e-05
0.00265575 0.0140032 -4.69919e-05
0.0030602 0.0148445 2.49655e-05
0.00359456 0.0138007 2.96183e-05
0.00396893 0.0146151 1.43924e-05
0.00458428 0.0139057 -3.62044e-05
0.00519824 0.0145414 2.52958e-05
0.00552543 0.0137742 -4.96651e-05
0.00605481 0.0145272 -1.66336e-06
0.00643557 0.0136484 -6.05535e-06
0.00697705 0.0145737 -2.79437e-05
0.00741887 0.013702 1.57621e-06
0.00803581 0.0145644 -3.93501e-06
0.00836971 0.013446 4.44824e-05
0.00910425 0.0140475 4.05064e-05
0.0097489 0.014724 -8.94147e-06
0.00893974 0.0149825 -1.15952e-07
0.0100685 0.0138484 -3.1985e-05
0.0105895 0.0146518 2.67646e-06
0.0110034 0.0139546 8.79731e-06
0.0114738 0.0146896 -1.90989e-05
0.0117957 0.0137564 1.18363e-05
0.0123118 0.0144649 -1.70971e-05
0.0126783 0.0136419 2.04004e-05
0.0132366 0.0143812 -4.99115e-05
0.0136299 0.0135849 4.34762e-05
0.0141736 0.0146393 2.36495e-05
0.0144746 0.0138163 1.50053e-05
0.0151202 0.0145934 -1.68329e-05
0.0153565 0.0136947 2.59986e-05
0.0161293 0.0144172 -4.8797e-05
0.0162668 0.0133869 -2.94781e-05
0.0171397 0.0141678 -3.80464e-05
0.017994 0.0146261 6.36771e-07
0.018055 0.0136988 -4.54767e-05
0.0199371 0.0145336 -2.39016e-05
0.0189289 0.0145416 -3.38088e-05
0.0192579 0.0137378 6.46138e-06
0.00142582 0.0153979 3.1619e-05
0.00101898 0.0162514 -3.75421e-05
0.00050359 0.0153941 1.65265e-05
0.00013071 0.0162431 3.22872e-05
0.00197367 0.0162624 -2.29225e-05
0.00235234 0.0154157 -4.48401e-05
0.00300072 0.0161905 -1.88293e-05
0.00373452 0.0155211 5.22691e-06
0.00398172 0.0163418 -2.84806e-06
0.00463509 0.0152452 3.75063e-05
0.00490428 0.0161972 -2.57249e-06
0.00556886 0.0153355 -3.31627e-05
0.0059253 0.0162181 4.29286e-05
0.00654925 0.0154127 3.83299e-05
0.0069133 0.0162876 8.05502e-06
0.00747187 0.0153715 -1.60873e-07
0.00779204 0.0162823 4.44584e-05
0.00838394 0.0156747 1.77529e-05
0.00918915 0.0160939 1.78253e-05
0.00992887 0.0155469 1.34032e-05
0.0100147 0.0163666 -1.78006e-05
0.0107687 0.0163486 3.69213e-05
0.0109334 0.0154951 -2.36735e-05
0.0116244 0.0162674 -3.81553e-05
0.0120153 0.0154053 -3.46021e-05
0.0126226 0.0162174 4.68532e-05
0.0130429 0.0153164 -4.47667e-06
0.013615 0.0163154 -3.82493e-05
0.0139983 0.0155211 4.44816e-05
0.0145311 0.0162969 2.60965e-05
0.0149144 0.0154788 -1.42244e-05
0.0154496 0.0162596 -2.63927e-05
0.0158502 0.0153997 1.45032e-05
0.0163289 0.0162682 1.42827e-05
0.0168718 0.0152248 8.61202e-06
0.0172497 0.0162313 1.04172e-05
0.0177837 0.0154402 -1.6534e-05
0.0182539 0.016246 1.14277e-05
0.0186551 0.0153945 3.47044e-05
0.0192285 0.0162476 4.63278e-05
0.0195838 0.0154169 -1.23126e-05
VERTICES 400 800
1 0
1 1
1 2
1 3
1 4
1 5
1 6
1 7
1 8
1 9
1 10
1 11
1 12
1 13
1 14
1 15
1 16
1 17
1 18
1 19
1 20
1 21
1 22
1 23
1 24
1 25
1 26
1 27
1 28
1 29
1 30
1 31
1 32
1 33
1 34
1 35
1 36
1 37
1 38
1 39
1 40
1 41
1 42
1 43
1 44
1 45
1 46
1 47
1 48
1 49
1 50
1 51
1 52
1 53
1 54
1 55
1 56
1 57
1 58
1 59
1 60
1 61
1 62
1 63
1 64
1 65
1 66
1 67
1 68
1 69
1 70
1 71
1 72
1 73
1 74
1 75
1 76
1 77
1 78
1 79
1 80
1 81
1 82
1 83
1 84
1 85
1 86
1 87
1 88
1 89
1 90
1 91
1 92
1 93
1 94
1 95
1 96
1 97
1 98
1 99
1 100
1 101
1 102
1 103
1 104
1 105
1 106
1 107
1 108
1 109
1 110
1 111
1 112
1 113
1 114
1 115
1 116
1 117
1 118
1 119
1 120
1 121
1 122
1 123
1 124
1 125
1 126
1 127
1 128
1 129
1 130
1 131
1 132
1 133
1 134
1 135
1 136
1 137
1 138
1 139
1 140
1 141
1 142
1 143
1 144
1 145
1 146
1 147
1 148
1 149
1 150
1 151
1 152
1 153
1 154
1 155
1 156
1 157
1 158
1 159
1 160
1 161
1 162
1 163
1 164
1 165
1 166
1 167
1 168
1 169
1 170
1 171
1 172
1 173
1 174
1 175
1 176
1 177
1 178
1 179
1 180
1 181
1 182
1 183
1 184
1 185
1 186
1 187
1 188
1 189
1 190
1 191
1 192
1 193
1 194
1 195
1 196
1 197
1 198
1 199
1 200
1 201
1 202
1 203
1 204
1 205
1 206
1 207
1 208
1 209
1 210
1 211
1 212
1 213
1 214
1 215
1 216
1 217
1 218
1 219
1 220
1 221
1 222
1 223
1 224
1 225
1 226
1 227
1 228
1 229
1 230
1 231
1 232
1 233
1 234
1 235
1 236
1 237
1 238
1 239
1 240
1 241
1 242
1 243
1 244
1 245
1 246
1 247
1 248
1 249
1 250
1 251
1 252
1 253
1 254
1 255
1 256
1 257
1 258
1 259
1 260
1 261
1 262
1 263
1 264
1 265
1 266
1 267
1 268
1 269
1 270
1 271
1 272
1 273
1 274
1 275
1 276
1 277
1 278
1 279
1 280
1 281
1 282
1 283
1 284
1 285
1 286
1 287
1 288
1 289
1 290
1 291
1 292
1 293
1 294
1 295
1 296
1 297
1 298
1 299
1 300
1 301
1 302
1 303
1 304
1 305
1 306
1 307
1 308
1 309
1 310
1 311
1 312
1 313
1 314
1 315
1 316
1 317
1 318
1 319
1 320
1 321
1 322
1 323
1 324
1 325
1 326
1 327
1 328
1 329
1 330
1 331
1 332
1 333
1 334
1 335
1 336
1 337
1 338
1 339
1 340
1 341
1 342
1 343
1 344
1 345
1 346
1 347
1 348
1 349
1 350
1 351
1 352
1 353
1 354
1 355
1 356
1 357
1 358
1 359
1 360
1 361
1 362
1 363
1 364
1 365
1 366
1 367
1 368
1 369
1 370
1 371
1 372
1 373
1 374
1 375
1 376
1 377
1 378
1 379
1 380
1 381
1 382
1 383
1 384
1 385
1 386
1 387
1 388
1 389
1 390
1 391
1 392
1 393
1 394
1 395
1 396
1 397
1 398
1 399
POINT_DATA 400
VECTORS f float
2.89671e-09 7.89152e-09 0.0
9.47731e-09 2.12747e-08 0.0
1.2085e-09 2.45617e-08 0.0
1.38835e-08 8.23929e-09 0.0
4.6323e-09 2.51737e-09 0.0
1.27996e-08 5.12055e-10 0.0
4.87009e-09 4.6676e-09 0.0
1.76291e-08 2.69609e-09 0.0
-1.91172e-08 2.24873e-09 0.0
3.33622e-09 -6.76388e-10 0.0
8.40834e-10 -9.02185e-09 0.0
-5.79862e-08 -3.55501e-08 0.0
-4.13539e-08 5.68183e-08 0.0
-7.81198e-10 -1.7818e-09 0.0
-5.6571e-09 3.20462e-08 0.0
5.57505e-08 5.4408e-08 0.0
4.87977e-09 1.71642e-08 0.0
6.57657e-09 1.43252e-08 0.0
2.25225e-08 1.08494e-07 0.0
-1.66335e-08 5.36553e-08 0.0
-5.74071e-09 7.3564e-08 0.0
1.74868e-09 6.74407e-08 0.0
-1.16663e-08 2.13648e-08 0.0
-2.84143e-08 3.24742e-08 0.0
-3.91913e-08 3.77289e-08 0.0
-2.20544e-08 1.03096e-08 0.0
-5.16808e-08 -1.0277e-08 0.0
-1.59024e-08 -3.99709e-09 0.0
-2.71119e-08 -5.54487e-08 0.0
-3.94883e-08 -3.19791e-08 0.0
5.5305e-08 2.51369e-08 0.0
-1.59696e-08 6.57698e-09 0.0
1.46857e-08 6.14394e-08 0.0
3.84186e-09 5.40915e-08 0.0
-9.27207e-09 7.91401e-08 0.0
1.43977e-08 9.43386e-08 0.0
1.60518e-08 7.05383e-08 0.0
3.06263e-09 3.56345e-08 0.0
6.54635e-09 6.32606e-08 0.0
8.34595e-09 2.95238e-08 0.0
3.2141e-08 1.70201e-08 0.0
4.25317e-08 7.56933e-09 0.0
1.3535e-08 -3.84042e-09 0.0
2.46501e-08 -1.49898e-09 0.0
5.89659e-10 5.8212e-09 0.0
2.27188e-08 3.07471e-10 0.0
-3.1148e-08 3.17057e-08 0.0
1.95586e-08 3.57891e-08 0.0
-1.33903e-07 -2.63045e-08 0.0
1.33203e-08 -1.09615e-08 0.0
-2.13464e-08 3.39313e-08 0.0
-2.86081e-08 8.12192e-08 0.0
7.3064e-09 9.43479e-08 0.0
-2.94085e-09 3.79426e-08 0.0
-4.71144e-10 3.44122e-08 0.0
1.40742e-08 4.28669e-08 0.0
2.60922e-08 5.65505e-08 0.0
1.06498e-08 5.92306e-08 0.0
2.09968e-08 6.8456e-08 0.0
4.18503e-08 3.3394e-08 0.0
3.39852e-08 7.52299e-08 0.0
2.21488e-08 6.12835e-08 0.0
3.86668e-08 9.35724e-08 0.0
2.62625e-08 1.15044e-07 0.0
-6.15782e-09 6.81371e-08 0.0
-4.18706e-08 3.1505e-08 0.0
-1.03367e-07 -2.5489e-08 0.0
-8.07145e-08 -7.54621e-08 0.0
-4.00644e-08 -5.81711e-08 0.0
-8.34474e-08 -9.12978e-08 0.0
-4.8837e-09 -8.30084e-08 0.0
-7.86128e-08 -2.83669e-08 0.0
3.49257e-08 2.776e-08 0.0
-3.98415e-08 7.46083e-08 0.0
-3.49063e-09 9.15696e-08 0.0
-3.04921e-08 9.30745e-08 0.0
-1.21691e-08 1.53321e-07 0.0
6.01599e-09 8.8767e-08 0.0
3.36998e-09 9.52724e-08 0.0
5.95653e-08 8.87953e-08 0.0
1.15998e-08 6.09852e-08 0.0
3.85432e-08 -2.23519e-09 0.0
2.07419e-09 -3.88218e-09 0.0
1.4461e-08 -8.31664e-09 0.0
-1.71296e-08 -1.12198e-08 0.0
7.27924e-09 5.29574e-09 0.0
-1.48495e-08 1.56187e-08 0.0
-1.09219e-08 9.71729e-09 0.0
-2.23127e-08 1.674e-08 0.0
-2.80144e-08 2.01206e-08 0.0
-7.4653e-09 -8.32424e-09 0.0
-1.39753e-08 -9.51925e-09 0.0
1.75234e-08 1.69681e-09 0.0
4.22036e-08 4.10691e-08 0.0
4.88097e-08 2.22517e-08 0.0
4.84362e-08 -1.43821e-08 0.0
6.42566e-08 1.35542e-08 0.0
4.18547e-08 3.73596e-08 0.0
4.08824e-08 3.07979e-08 0.0
-7.90678e-08 -1.48936e-07 0.0
-1.00092e-08 -3.02791e-08 0.0
2.60733e-08 2.67087e-08 0.0
-4.48213e-09 8.25942e-09 0.0
7.17394e-08 -1.52172e-08 0.0
1.05495e-08 3.38853e-08 0.0
9.13046e-08 4.11659e-08 0.0
3.59687e-08 4.57944e-08 0.0
8.52643e-08 7.38545e-08 0.0
3.92814e-08 -3.21509e-10 0.0
5.46363e-08 -2.36328e-08 0.0
-6.04639e-08 -9.564e-08 0.0
9.0715e-09 -4.72302e-08 0.0
-8.07175e-08 -8.11962e-08 0.0
-2.34946e-08 -3.87345e-08 0.0
-1.57777e-08 5.57474e-09 0.0
5.42711e-08 8.8832e-08 0.0
2.3979e-08 3.2337e-08 0.0
2.20722e-08 9.61837e-08 0.0
2.2509e-08 3.84579e-08 0.0
3.55507e-08 4.22324e-08 0.0
-7.82204e-09 3.47019e-08 0.0
-4.83995e-09 -1.14262e-08 0.0
-8.97496e-09 -1.95827e-08 0.0
-9.696e-09 -1.01429e-08 0.0
-2.01077e-08 -8.5906e-10 0.0
-1.75148e-08 1.37887e-08 0.0
-2.59666e-08 1.36831e-08 0.0
-5.78169e-09 1.55566e-08 0.0
-2.25646e-08 2.59461e-08 0.0
2.06597e-09 5.14374e-09 0.0
9.67918e-09 -2.99511e-08 0.0
1.31348e-08 -3.10521e-08 0.0
1.87382e-08 -9.81448e-09 0.0
4.06153e-08 -4.09051e-08 0.0
7.09804e-08 -1.61592e-09 0.0
7.39728e-08 -1.71414e-09 0.0
6.02171e-08 9.86755e-09 0.0
9.54636e-08 6.24001e-08 0.0
-3.70166e-09 -7.12428e-08 0.0
-7.72076e-08 -2.03066e-07 0.0
2.60997e-08 -4.90152e-08 0.0
-1.77821e-07 -2.78139e-07 0.0
4.54934e-08 -5.05436e-09 0.0
-8.65604e-08 4.60008e-08 0.0
1.09471e-08 2.24855e-08 0.0
-2.31736e-08 -1.706e-08 0.0
1.11253e-07 2.38915e-08 0.0
1.2946e-07 1.12384e-07 0.0
7.96967e-09 3.53047e-09 0.0
1.18836e-07 5.97173e-08 0.0
6.23965e-08 3.44656e-08 0.0
7.36603e-08 2.78263e-08 0.0
1.59747e-09 -7.20147e-09 0.0
4.84152e-10 -8.30274e-09 0.0
-9.95011e-09 1.39155e-08 0.0
-1.92896e-08 -8.17349e-09 0.0
-2.34042e-08 2.19268e-08 0.0
-5.46769e-09 -9.10818e-09 0.0
-3.55197e-08 -3.40895e-08 0.0
-1.03495e-08 -2.77735e-08 0.0
-4.3792e-08 -7.16582e-08 0.0
-1.29408e-08 4.18984e-09 0.0
-9.5947e-09 2.95663e-09 0.0
1.14954e-09 2.74425e-08 0.0
4.10597e-09 1.48598e-08 0.0
1.75568e-08 1.64817e-08 0.0
1.18441e-08 2.45715e-08 0.0
2.49617e-08 -1.25516e-08 0.0
2.87848e-08 -3.95432e-08 0.0
1.6688e-08 -4.63112e-08 0.0
9.25873e-09 -5.64421e-08 0.0
1.28679e-09 -2.9983e-08 0.0
1.31109e-08 -2.62611e-08 0.0
1.80012e-09 -1.16157e-08 0.0
2.67432e-08 7.25872e-09 0.0
3.47137e-08 1.33387e-08 0.0
1.73568e-07 9.1802e-08 0.0
1.06997e-07 1.79054e-07 0.0
-4.77113e-08 -5.39316e-07 0.0
-4.19311e-08 3.91502e-07 0.0
-3.18085e-07 -2.14153e-09 0.0
-1.11911e-07 1.3703e-07 0.0
-3.54371e-07 4.99027e-08 0.0
-5.06192e-08 -2.44416e-08 0.0
-2.31469e-08 -1.06015e-09 0.0
3.12494e-08 -7.2033e-08 0.0
7.50218e-08 -3.43082e-08 0.0
5.11889e-08 7.34143e-09 0.0
1.95085e-07 1.05233e-07 0.0
9.77732e-08 1.88748e-08 0.0
1.32507e-07 7.78123e-08 0.0
1.2961e-07 8.49472e-08 0.0
1.05151e-07 7.5231e-08 0.0
1.40882e-08 -1.20495e-08 0.0
3.78478e-08 -5.41432e-08 0.0
-1.12388e-08 -5.45534e-08 0.0
-8.41331e-09 -4.08588e-08 0.0
-3.91304e-08 -2.29394e-08 0.0
-2.42101e-08 -2.62639e-08 0.0
-4.95377e-08 -4.67377e-08 0.0
-1.17823e-08 -5.45288e-09 0.0
-3.42636e-09 1.03244e-08 0.0
1.07151e-08 7.63079e-09 0.0
1.53056e-08 1.02218e-08 0.0
5.28828e-08 1.23286e-08 0.0
6.40963e-08 9.70266e-09 0.0
4.918e-08 1.47749e-08 0.0
5.05305e-08 -1.72926e-08 0.0
2.24494e-08 -2.83553e-09 0.0
7.55474e-09 -9.39542e-09 0.0
-8.74988e-09 -2.97393e-08 0.0
-2.65745e-08 -2.85597e-08 0.0
-1.10827e-08 -1.5722e-08 0.0
-5.17149e-08 -1.40437e-08 0.0
-3.55238e-08 1.04289e-08 0.0
-6.46499e-08 2.93244e-09 0.0
-9.27495e-08 2.15461e-07 0.0
-2.80262e-09 2.63646e-07 0.0
6.87742e-08 3.72808e-08 0.0
4.99738e-08 6.97472e-08 0.0
1.19007e-07 9.20766e-09 0.0
6.15047e-08 -2.70748e-08 0.0
2.47366e-08 -1.78952e-08 0.0
2.20861e-08 -8.03017e-08 0.0
1.579e-08 -3.89471e-08 0.0
4.03195e-08 -3.28587e-08 0.0
1.33236e-08 -1.76719e-08 0.0
2.65833e-08 -9.93223e-09 0.0
-8.52257e-09 -1.66961e-08 0.0
1.68016e-08 4.5571e-08 0.0
-1.30999e-08 9.48693e-09 0.0
3.11557e-08 3.16484e-08 0.0
-8.89125e-09 1.28754e-08 0.0
-3.19444e-08 -2.39363e-08 0.0
-3.59815e-08 -2.07603e-08 0.0
-6.92865e-08 -8.27039e-08 0.0
-4.4341e-08 -4.55798e-08 0.0
-3.83338e-08 -4.4474e-08 0.0
-4.39707e-09 -1.72872e-08 0.0
-2.90533e-08 -1.79251e-08 0.0
-1.65596e-08 -1.58856e-08 0.0
-1.06538e-08 -2.49473e-08 0.0
-9.44112e-09 -8.71931e-09 0.0
3.03705e-09 -6.00734e-09 0.0
8.50259e-09 3.26964e-09 0.0
1.27446e-08 3.63622e-09 0.0
4.51767e-08 1.49539e-08 0.0
3.17288e-08 1.40319e-08 0.0
7.2311e-08 3.05968e-08 0.0
3.72581e-08 2.7427e-08 0.0
4.38474e-08 3.01055e-08 0.0
4.59375e-08 3.80481e-08 0.0
1.43655e-08 2.365e-08 0.0
3.9045e-08 -7.45803e-09 0.0
-4.40107e-09 5.90816e-08 0.0
3.40135e-08 -3.87879e-08 0.0
3.9577e-08 -5.71761e-08 0.0
-8.15387e-09 -9.08706e-08 0.0
1.50961e-08 -9.9469e-08 0.0
4.18689e-08 -1.18186e-07 0.0
5.17929e-08 -5.26835e-08 0.0
-2.78812e-09 -9.04282e-08 0.0
7.11274e-08 -1.35413e-08 0.0
5.22618e-08 -2.42241e-08 0.0
1.31628e-08 -2.06905e-08 0.0
5.87197e-08 -5.48432e-08 0.0
6.10216e-09 -4.84937e-09 0.0
1.6726e-08 -1.50606e-08 0.0
-1.7539e-08 1.17927e-08 0.0
-3.30235e-08 -4.68766e-09 0.0
-3.10269e-08 1.35729e-09 0.0
-1.78112e-08 -3.01697e-08 0.0
-1.32105e-08 -9.03532e-09 0.0
-3.35112e-08 -3.31746e-09 0.0
-1.83511e-08 -2.83335e-08 0.0
-2.06898e-08 -2.7612e-08 0.0
1.80329e-09 -2.46143e-08 0.0
-3.82304e-08 -5.07752e-08 0.0
-6.25065e-09 2.49339e-08 0.0
6.40553e-09 -7.63206e-09 0.0
1.90969e-08 2.07079e-08 0.0
-1.09801e-08 -1.69596e-09 0.0
-4.02249e-08 2.64443e-09 0.0
-3.31187e-09 1.79412e-09 0.0
-3.82837e-08 -1.68117e-08 0.0
6.10124e-09 7.19447e-10 0.0
-1.59454e-08 -1.02299e-08 0.0
1.25221e-08 2.05804e-08 0.0
-3.94481e-09 -1.6888e-08 0.0
3.50722e-08 2.78312e-08 0.0
1.5964e-08 3.80474e-09 0.0
4.64576e-08 1.13388e-08 0.0
1.38841e-08 4.67526e-08 0.0
9.79957e-09 -4.4709e-08 0.0
5.32933e-08 -1.32742e-07 0.0
-2.14712e-08 -5.63361e-08 0.0
3.14814e-08 -3.45278e-08 0.0
1.4532e-08 -1.02862e-07 0.0
1.51187e-08 -3.4728e-08 0.0
-1.39654e-08 -1.40884e-09 0.0
-8.6597e-09 2.35888e-08 0.0
-1.04518e-08 -2.56103e-09 0.0
-1.54605e-08 4.28265e-09 0.0
-1.9128e-08 8.22865e-10 0.0
-1.72894e-08 7.92107e-10 0.0
-1.80623e-08 7.1589e-09 0.0
2.42759e-09 -1.39735e-08 0.0
-1.69256e-08 -6.6945e-09 0.0
-4.11431e-09 -3.65198e-08 0.0
2.29288e-09 -2.16609e-08 0.0
2.05667e-08 -3.58837e-08 0.0
1.29618e-08 -4.04526e-08 0.0
1.69038e-08 -2.36165e-08 0.0
1.37674e-08 -7.08377e-09 0.0
2.89252e-08 -1.807e-08 0.0
2.29679e-08 1.19475e-08 0.0
1.9251e-08 1.09147e-09 0.0
6.09956e-09 5.36712e-08 0.0
-1.49844e-09 6.55149e-08 0.0
1.48749e-08 3.41128e-08 0.0
-3.06581e-08 4.18192e-08 0.0
-1.4546e-08 1.09312e-08 0.0
-4.8173e-08 5.0963e-09 0.0
-3.76361e-08 -3.59764e-09 0.0
-4.72787e-08 -1.4314e-08 0.0
-2.87274e-08 -2.56427e-08 0.0
-3.64697e-08 -4.26756e-08 0.0
-1.94493e-08 -3.63057e-08 0.0
-1.05066e-08 -3.0514e-08 0.0
-2.28613e-08 -5.56216e-08 0.0
6.80349e-09 -6.56447e-08 0.0
-6.17633e-08 -3.78271e-08 0.0
6.00514e-08 1.50577e-08 0.0
-2.86316e-08 1.24077e-07 0.0
1.03162e-07 6.99162e-08 0.0
3.02774e-08 4.02737e-08 0.0
1.10001e-08 2.74233e-09 0.0
2.26299e-08 4.16192e-08 0.0
-9.21919e-09 -1.98762e-08 0.0
4.34368e-10 -1.24234e-08 0.0
-9.46016e-09 -2.07272e-08 0.0
-6.80548e-09 -1.60076e-08 0.0
-1.00787e-08 3.77372e-09 0.0
-3.35244e-09 1.11603e-08 0.0
-6.85052e-09 1.19727e-08 0.0
7.74676e-09 2.29534e-09 0.0
-1.06813e-08 1.7857e-09 0.0
2.29936e-08 -1.62088e-08 0.0
2.11982e-09 -1.49976e-08 0.0
3.22171e-08 -3.49683e-08 0.0
1.32029e-08 -3.56756e-08 0.0
5.02105e-08 -5.78731e-08 0.0
2.98193e-08 -5.55289e-08 0.0
5.34946e-08 -4.65508e-08 0.0
3.25501e-08 -1.5246e-08 0.0
3.7488e-08 -3.12098e-08 0.0
1.89177e-08 7.27095e-08 0.0
3.57875e-08 3.02591e-08 0.0
2.33929e-08 1.67188e-08 0.0
-3.6057e-09 3.6257e-08 0.0
-4.55191e-09 2.34169e-08 0.0
-6.76007e-10 5.53352e-08 0.0
-3.41478e-09 2.75066e-08 0.0
-4.73035e-09 1.60258e-08 0.0
-9.82434e-09 1.89801e-08 0.0
-8.87979e-09 1.5971e-09 0.0
-1.89412e-08 -2.00544e-08 0.0
-4.46867e-09 -1.20918e-08 0.0
-2.37089e-08 -4.73179e-08 0.0
-1.12463e-08 -3.48606e-08 0.0
-2.12605e-08 -4.40806e-08 0.0
-1.27666e-08 -3.43189e-08 0.0
-3.38329e-08 -4.56157e-08 0.0
7.48224e-09 -2.96701e-08 0.0
-3.22158e-09 6.77422e-08 0.0
9.62981e-09 1.18579e-08 0.0
2.98938e-08 4.49757e-08 0.0
2.73778e-08 2.68359e-08 0.0
1.53922e-08 6.10793e-10 0.0
7.60167e-09 -1.41779e-10 0.0
4.20545e-09 -1.55693e-09 0.0
3.49568e-09 -1.21687e-08 0.0
7.81827e-09 -1.07584e-08 0.0
3.59654e-09 -1.39216e-08 0.0
1.90836e-08 -1.32384e-08 0.0
3.23805e-08 -6.76467e-09 0.0
1.24159e-08 -7.30672e-09 0.0
2.47778e-08 -1.46124e-08 0.0
1.6757e-08 -1.22954e-08 0.0
3.09818e-08 -1.66568e-08 0.0
1.97389e-08 -7.37731e-09 0.0
4.16374e-08 -2.94403e-08 0.0
7.58816e-09 -1.98511e-09 0.0
5.15995e-08 -4.68542e-08 0.0
1.05975e-08 -9.39335e-09 0.0
1.14028e-08 -5.43399e-09 0.0
5.0993e-09 8.06881e-09 0.0
1.35525e-08 1.71825e-08 0.0
-6.12295e-10 2.1195e-08 0.0
4.8581e-09 3.18975e-08 0.0
VECTORS omega float
-0.0361331 -0.181894 0.0367327
0.109045 0.0684833 -0.0436536
-0.0105112 -0.0448715 0.0032852
-0.0387747 -0.0738422 0.00703944
0.00124376 0.148087 0.0191135
0.0538366 0.0755476 0.0288767
0.00377617 -0.137771 0.0103847
-0.124866 -0.00474408 0.0249334
0.094567 0.0169534 0.018308
0.00182912 0.142776 0.00414473
-0.00100371 -0.13603 0.0149299
-0.0580597 0.0344147 0.00534608
0.0609154 -0.0337999 0.0470307
-0.00275945 0.147784 0.0149213
0.00063783 -0.134831 0.0111389
0.037661 -0.0464324 0.0901509
0.000182431 0.162288 -0.0168409
0.00232901 -0.0227637 -0.0106971
0.0393969 -0.0876442 0.0916372
-0.00585361 0.0254494 0.00867671
0.0243767 -0.0176143 0.0371127
-0.0241173 0.0213879 0.0289189
0.000394938 -0.0405719 0.0202172
-0.00387383 0.0400079 0.0206534
0.0278156 -0.0229696 0.0104411
-0.000852595 -0.0466377 0.0070386
-0.004034 0.0285893 -0.00504678
-0.00666037 0.0568084 0.0239977
-0.00790133 -0.0391326 0.0704085
0.0082555 -0.0466778 -0.00937815
-0.0818886 -0.196989 0.0576926
0.00153676 0.0503203 0.0227964
-0.180802 0.178606 0.126264
0.217427 -0.0434856 -0.0355654
0.0698802 -0.0263816 0.108665
-0.0113512 0.0512071 -0.000744933
-0.00581916 -0.0530889 0.00328749
0.059183 -0.0799644 0.0807666
-0.0330841 0.0166489 0.105683
0.00158851 0.0548331 0.00295528
-0.144482 0.925744 0.117117
-0.284092 -0.217697 -0.035065
0.0681391 0.0641885 0.0444541
-0.0504423 -0.0701895 0.0437461
-0.067349 -0.0746093 0.00836967
0.0554918 0.0752682 0.0195278
-0.0903326 0.0462641 0.0779985
0.0950154 -0.0589532 -0.00375998
0.00793452 -0.0596697 0.105047
-0.0470165 0.0553504 0.0232363
0.101091 -0.0220052 -0.0166661
-0.0510406 0.058789 0.0413597
-0.0595446 -0.0015799 0.031037
0.0298818 -0.047427 -0.00407703
-0.0414654 0.049088 0.0192135
0.0625458 0.0730241 0.0250416
-0.0373052 -0.068352 -0.00268215
-0.00449358 0.00119463 -0.000650231
-0.0453624 0.0820953 -0.029152
0.0363798 0.000164306 0.00687453
-0.00541336 -0.0744699 0.0214674
-0.0229304 0.00129956 -0.00471578
-0.00601836 0.0754146 0.0292301
0.0422832 -0.00490043 0.00285706
0.00796215 -0.086061 0.0673097
0.0139586 0.00907438 -0.00839932
0.00357836 -0.0415029 0.096743
-0.0147282 -0.00196888 0.0142892
0.0164591 0.00263511 0.053231
-0.00564144 0.00615013 0.0210446
-0.0289487 0.0051454 0.00428354
0.0163594 -0.0145314 0.0415575
0.00066509 -0.00297626 0.0461701
-0.00258194 0.0161099 -0.0415803
0.131823 -0.246414 0.00436528
-0.0475201 -0.0353649 -0.025012
-0.0648144 0.215301 0.00251368
0.141554 -0.155294 -8.66162e-05
0.047448 -0.226146 0.00236028
-0.0804711 0.144753 0.0195751
-0.0909467 0.229464 0.0208207
-0.180854 0.0368673 0.00373292
0.243117 0.0586743 0.0567334
0.221166 -0.0451082 0.0591956
-0.181714 -0.0618688 0.00402765
-0.0909257 -0.148656 -0.00109479
-0.0506385 -0.203218 0.0907933