# vtk DataFile Version 2.0
Generated by lpp.py
ASCII
DATASET POLYDATA
POINTS 400 float
0.001324 0.00044337 3.36586e-05
0.000908339 0.00128642 -1.66342e-05
0.000243024 0.000443195 -3.64628e-05
0.00183125 0.00127727 5.09221e-06
0.00226652 0.000435537 -1.24497e-05
0.00273761 0.00128755 4.63423e-05
0.00324561 0.000515993 4.67087e-05
0.00374183 0.00129202 -1.5404e-05
0.00460346 0.00119571 -2.0603e-05
0.00417237 0.00041735 3.04549e-05
0.0051154 0.000469838 4.04467e-05
0.00566724 0.00130835 -2.65834e-05
0.00663883 0.00128982 -2.02466e-06
0.00602124 0.00041897 -1.20537e-05
0.00693109 0.000445583 3.91278e-05
0.00824139 0.00117627 -1.82355e-06
0.00779483 0.00036427 3.24564e-05
0.00876689 0.000398912 -3.28708e-05
0.00929931 0.00138455 3.24568e-05
0.009757 0.000490928 -2.76781e-05
0.0103839 0.0013114 -4.92787e-05
0.0113754 0.00139203 -4.32784e-06
0.0107645 0.00044373 -3.96086e-06
0.011779 0.000485626 -1.32742e-05
0.012404 0.00133006 1.95463e-05
0.0127803 0.000442866 1.3181e-05
0.013432 0.00122626 3.75182e-05
0.013613 0.000330102 1.89547e-05
0.0143492 0.0016203 1.99029e-05
0.0143635 0.000727494 -4.71808e-05
0.0156443 0.00128577 1.72248e-05
0.0152267 0.000426973 3.7231e-06
0.0165465 0.00131547 3.54547e-05
0.016157 0.000503683 -4.85386e-05
0.0177914 0.00133096 -3.92382e-05
0.0171606 0.000537878 -3.8784e-05
0.0182408 0.000486096 3.096e-05
0.0199936 0.00131551 4.93031e-05
0.0189156 0.00128032 6.72355e-06
0.0192496 0.000431018 -3.72737e-05
0.000902329 0.00230749 5.14548e-06
0.000374206 0.00315671 -4.9345e-05
0.0020589 0.00294589 -3.17454e-05
0.00231793 0.00211881 -1.41959e-06
0.00291708 0.00285003 3.50109e-05
0.0032509 0.00201955 -3.46654e-05
0.00385752 0.00297752 -3.02218e-05
0.00412353 0.00209082 3.70504e-05
0.00497465 0.0030007 3.07542e-05
0.00497122 0.00196094 -2.23732e-05
0.00563857 0.00243838 -2.11247e-06
0.00622767 0.00307391 -3.67063e-05
0.0064169 0.00213345 3.11799e-05
0.00698244 0.00271077 -2.75116e-05
0.00731092 0.0019122 4.80419e-05
0.00771832 0.00291359 1.77683e-05
0.00827895 0.00219966 -3.97226e-05
0.00875628 0.00312001 4.55657e-05
0.00923959 0.00230677 1.80717e-05
0.00979486 0.00312842 -3.93388e-05
0.0101285 0.00222296 2.40231e-05
0.0107291 0.00309802 2.716e-05
0.0110887 0.00228141 -4.78087e-05
0.0116497 0.00309629 -4.25165e-05
0.0120524 0.00222726 -4.01526e-05
0.0126164 0.00312457 2.94528e-05
0.0131004 0.00222937 4.21294e-05
0.0136438 0.00314413 2.4953e-06
0.0141589 0.00242063 2.35941e-05
0.0146206 0.00314256 -2.89305e-05
0.015074 0.00224523 3.21045e-05
0.0156065 0.00309042 2.08022e-05
0.0159978 0.00209392 1.69816e-05
0.0164945 0.00284579 -1.31875e-05
0.0169187 0.00207907 -2.13541e-05
0.0173488 0.00302215 -2.48084e-05
0.0178549 0.00224457 7.17441e-06
0.018434 0.00302925 -3.11061e-05
0.0188526 0.00220885 -6.697e-06
0.019424 0.00303851 1.88296e-05
0.0198433 0.00217645 2.40593e-05
0.00130852 0.00346471 4.11056e-07
0.0015301 0.00437921 -3.43082e-05
0.000507521 0.00405272 4.11872e-05
0.000779332 0.00499796 1.15215e-05
0.00224327 0.00383246 4.14547e-05
0.00261393 0.0046837 2.79416e-05
0.00312708 0.0036878 -1.57031e-06
0.00358578 0.00469903 5.32063e-06
0.00400829 0.00391643 -2.6529e-06
0.00457142 0.00494654 -3.58607e-05
0.00498391 0.00397156 -2.13321e-05
0.00564804 0.00479151 -4.97251e-05
0.00596028 0.0039043 -2.41619e-05
0.00666272 0.00459886 -2.57589e-05
0.00700998 0.0036569 -4.22335e-05
0.00773237 0.00462654 4.30556e-05
0.00794834 0.00368335 4.42331e-05
0.00876492 0.00406187 -4.39636e-05
0.00978677 0.00487432 4.93343e-05
0.00959794 0.00400267 4.05756e-05
0.00869378 0.00490919 -1.72291e-05
0.0104125 0.00387931 -3.72271e-05
0.0107534 0.00467089 4.50596e-05
0.0112711 0.00394423 1.35023e-05
0.0119215 0.00475374 3.81834e-05
0.0121304 0.00389286 3.14585e-06
0.0128901 0.00492794 -2.4127e-05
0.0131187 0.00399454 1.0814e-05
0.0137507 0.00483785 -4.51984e-05
0.0141746 0.00402825 1.00341e-06
0.0146959 0.00489111 6.87793e-06
0.0151432 0.0039595 1.87838e-05
0.0160681 0.00415564 4.33922e-05
0.0167654 0.00468918 2.18197e-05
0.0170172 0.00386735 -2.12721e-05
0.0176483 0.00460823 6.56493e-06
0.0179505 0.00377697 9.36883e-06
0.0186831 0.00453791 3.03201e-05
0.0193963 0.00392464 1.43967e-05
0.0197382 0.00478783 -2.66714e-05
0.00118018 0.00594903 1.46596e-05
0.000305122 0.00650275 -3.99128e-05
7.07257e-05 0.00571441 -3.26099e-05
0.00179892 0.00521756 -7.07934e-06
0.00211432 0.00645874 -2.06108e-05
0.00261444 0.00563281 3.54227e-05
0.0031107 0.00641063 -2.96496e-05
0.0035679 0.00562815 1.90715e-05
0.00442757 0.00591195 1.72497e-05
0.00534161 0.00576113 2.50127e-05
0.00593389 0.00650228 -4.27825e-05
0.00627804 0.00553417 2.43943e-05
0.00677769 0.00637437 -3.07296e-05
0.00718865 0.00549512 -2.4969e-05
0.00768561 0.00633606 1.47771e-05
0.00816137 0.00556079 -2.62417e-05
0.00862112 0.00633252 -3.20614e-05
0.00924063 0.00566157 -4.70071e-05
0.0100987 0.00575359 4.476e-05
0.0109122 0.0055539 -5.06646e-06
0.0113677 0.00651031 -4.22073e-05
0.0117404 0.00566375 2.60985e-05
0.0123181 0.0064026 1.83575e-05
0.0125043 0.00559634 -2.28987e-05
0.0131996 0.00609249 2.90979e-05
0.0141406 0.00577096 4.28851e-05
0.0151636 0.0058928 -1.46308e-05
0.015666 0.0050222 -7.56683e-06
0.0160407 0.00623951 -4.83823e-05
0.0165028 0.00551969 2.89194e-05
0.0169715 0.00632253 3.21564e-05
0.0173057 0.00537637 -4.85919e-05
0.0180597 0.00628194 -1.12464e-05
0.0181302 0.00535524 3.12852e-05
0.0192746 0.00635913 2.46256e-05
0.0190457 0.00548969 -4.44854e-05
0.00124976 0.00681314 -2.73404e-05
0.0011254 0.00795878 -3.38667e-05
0.000584518 0.0072596 -4.2113e-05
9.34197e-05 0.00807606 1.49646e-05
0.00188784 0.00742477 7.74856e-06
0.00203916 0.00829812 5.5329e-07
0.00281959 0.00725584 3.67542e-05
0.00291234 0.00819979 1.2865e-05
0.00373158 0.00772284 -4.70278e-05
0.00398505 0.00673789 -1.13161e-05
0.0047065 0.00768215 1.72877e-05
0.00504075 0.00677345 -4.33679e-05
0.00567312 0.00765957 7.98975e-06
0.00645062 0.00722425 -4.89198e-05
0.00702507 0.00808637 -1.8846e-05
0.00734728 0.00719569 -2.80691e-05
0.00790741 0.00787667 -4.34141e-05
0.00822776 0.00712409 2.59556e-05
0.00882734 0.00784918 -3.81694e-05
0.00940111 0.00692574 -2.37608e-06
0.00981576 0.0078299 -1.57412e-05
0.0103931 0.00668302 -1.47472e-05
0.0107247 0.00823291 4.979e-05
0.0110248 0.00736101 2.22644e-05
0.0117047 0.00820711 -4.55597e-05
0.0120235 0.00729816 -4.5975e-05
0.0128398 0.00785071 4.23607e-05
0.0130056 0.0069914 4.20701e-05
0.0138335 0.00781506 -5.04024e-06
0.0138894 0.00679802 1.64328e-05
0.0148364 0.00792164 -1.6913e-05
0.014893 0.00691082 -4.21217e-05
0.0158044 0.00811081 -3.94419e-05
0.0159 0.00713288 -1.21974e-05
0.0166669 0.00770143 -3.70828e-05
0.0174719 0.00715 -3.33274e-05
0.0181377 0.0080562 -3.83096e-05
0.0184879 0.00717525 -2.02095e-05
0.0191592 0.00778202 -4.84051e-05
0.0197392 0.00712972 -3.46879e-05
0.00158146 0.00914987 2.66777e-05
0.000785159 0.00875821 -3.96098e-06
0.000714533 0.00962895 -1.72888e-05
0.00230046 0.00997606 2.41907e-05
0.0025642 0.00906462 4.87165e-05
0.00321183 0.00972722 7.50784e-06
0.00346115 0.00889111 -7.08428e-06
0.00417398 0.00954441 6.12283e-06
0.00434154 0.00858012 1.74262e-06
0.00514981 0.00943828 -2.81666e-05
0.00533745 0.00853142 -1.04316e-05
0.00609696 0.00937788 9.49774e-06
0.00621729 0.00848912 -4.45245e-05
0.00692819 0.00902769 3.54547e-06
0.00738878 0.00987198 -2.7703e-05
0.00777262 0.0087158 -4.92713e-05
0.00818594 0.00951376 1.26179e-05
0.00869151 0.00879147 4.93873e-05
0.00908503 0.00970448 -4.18982e-05
0.00970255 0.00886164 -9.33208e-06
0.0106557 0.0092881 -3.72943e-05
0.0113599 0.00989154 1.32074e-05
0.0115983 0.00907756 3.24679e-05
0.0122838 0.00975865 -1.82378e-05
0.012537 0.00875933 4.17083e-05
0.0132008 0.00962331 2.0062e-05
0.0135383 0.00880318 -3.30909e-05
0.014023 0.00959835 -4.57402e-05
0.0145277 0.00882707 -3.07794e-05
0.0148993 0.00967002 4.85236e-05
0.0154767 0.00898077 -3.2558e-05
0.0157928 0.00993975 -4.73944e-05
0.0164487 0.00883799 -2.5672e-05
0.0166853 0.00969311 -3.5681e-05
0.0173047 0.00835096 2.81917e-06
0.0174087 0.00923205 -4.5525e-06
0.0183032 0.00993137 1.70983e-05
0.0183261 0.00898665 -3.29151e-05
0.0199396 0.00908488 -3.41589e-05
0.0191319 0.00955472 4.46827e-05
0.0191325 0.00861121 -3.50995e-05
0.00159155 0.0115947 -2.75196e-05
0.00140799 0.0100974 -3.628e-05
0.000989224 0.0108597 -3.81409e-05
8.18339e-05 0.0110252 4.26166e-05
0.00189965 0.0107561 2.8646e-05
0.00253746 0.0113923 1.79805e-07
0.0029563 0.0105896 -3.0738e-05
0.00351234 0.0113162 1.32908e-05
0.00385247 0.0104451 3.19371e-06
0.00447591 0.0112763 -4.05009e-05
0.00487154 0.0103859 2.58338e-05
0.00541623 0.011235 5.57899e-06
0.0057892 0.010226 3.55182e-05
0.00632009 0.0110336 -2.60959e-05
0.006604 0.0101993 1.90003e-05
0.00725133 0.0108313 2.40728e-05
0.00803274 0.0115379 -1.09524e-05
0.00821025 0.0105101 -2.41459e-05
0.00919308 0.0106626 1.14157e-05
0.00898252 0.0115591 -2.28614e-05
0.00995648 0.0100986 7.96265e-06
0.0100408 0.0110608 4.36203e-05
0.0107592 0.0104726 4.40746e-05
0.0109603 0.011362 4.26806e-05
0.0117048 0.0107221 1.59016e-05
0.0126358 0.0106139 -4.05226e-06
0.0131104 0.0112613 -3.49974e-05
0.0135619 0.0104309 -2.12959e-05
0.013924 0.0112392 -3.47829e-05
0.0144778 0.0103606 -6.10015e-06
0.0148353 0.0112145 -4.9699e-05
0.015799 0.0110011 -3.49785e-05
0.0165736 0.0105624 -3.04875e-05
0.0166133 0.0115682 2.14731e-05
0.0173069 0.0110703 4.23831e-06
0.0174439 0.0102047 1.54215e-05
0.0182827 0.0109064 -4.02054e-05
0.019068 0.01043 -1.5365e-05
0.0192016 0.01131 -1.60515e-05
0.0199243 0.0101229 -4.17269e-05
0.00137554 0.012654 1.39627e-05
0.000672123 0.011801 -9.96495e-06
0.000435675 0.0127303 2.195e-05
0.00224985 0.0123213 1.50647e-05
0.00292902 0.0130599 -2.83946e-05
0.00317503 0.0121453 2.84116e-05
0.00402723 0.0129445 -8.8818e-06
0.00405435 0.0120342 -1.71454e-05
0.00492859 0.0130901 4.3363e-05
0.00502732 0.0121545 3.19528e-05
0.00577808 0.0129032 -3.24457e-07
0.00604968 0.0119625 1.74786e-05
0.00663966 0.0126489 -2.9504e-05
0.00706312 0.0117968 2.61725e-05
0.00755294 0.0127004 -7.28073e-06
0.00853655 0.0124186 2.21972e-05
0.00927703 0.0130088 3.4178e-05
0.00980557 0.01199 -3.43726e-05
0.010118 0.0129245 2.4284e-05
0.0107422 0.0122957 4.99362e-05
0.011136 0.0131366 1.79808e-05
0.0118959 0.0117294 3.01021e-05
0.012053 0.0127998 -4.81269e-05
0.0128047 0.0119902 3.49515e-06
0.0131054 0.0128306 8.09002e-06
0.0137538 0.0121014 -1.27408e-05
0.0142436 0.012971 1.51186e-05
0.0147124 0.0121957 -2.52694e-05
0.015452 0.0127975 -2.24734e-05
0.0155742 0.0118899 -4.84058e-07
0.016309 0.0124316 2.73575e-05
0.0171237 0.0123298 2.6071e-05
0.0172167 0.0131972 -3.7354e-05
0.0178752 0.0118428 -4.54593e-05
0.0179477 0.0127929 -4.8395e-05
0.0186884 0.0130942 7.82155e-06
0.0188382 0.0121957 -1.47463e-05
0.0195294 0.0129237 -3.72359e-05
0.0197758 0.0120501 -4.13942e-05
0.00108936 0.013573 -4.1589e-05
0.000934626 0.0145447 -1.31753e-05
0.000156709 0.0136119 -1.17246e-06
0.00188374 0.0145655 -5.27218e-06
0.00199488 0.0133427 2.70269e-05
0.00265139 0.0140032 -4.69919e-05
0.00305563 0.0148445 2.49655e-05
0.00359028 0.0138008 2.96183e-05
0.00396444 0.0146152 1.43924e-05
0.00457998 0.0139058 -3.62044e-05
0.00519375 0.0145416 2.52958e-05
0.00552101 0.0137744 -4.96651e-05
0.00605037 0.0145273 -1.66336e-06
0.00643117 0.0136487 -6.05535e-06
0.0069727 0.0145738 -2.79437e-05
0.00741435 0.013702 1.57621e-06
0.00803132 0.0145642 -3.93501e-06
0.00836518 0.0134457 4.44824e-05
0.00909962 0.0140474 4.05064e-05
0.00974432 0.0147237 -8.94147e-06
0.0089352 0.0149825 -1.15952e-07
0.010064 0.0138481 -3.1985e-05
0.0105849 0.0146516 2.67646e-06
0.010999 0.0139544 8.79731e-06
0.0114693 0.0146895 -1.90989e-05
0.0117914 0.0137562 1.18363e-05
0.0123074 0.0144649 -1.70971e-05
0.012674 0.0136418 2.04004e-05
0.0132322 0.0143811 -4.99115e-05
0.0136256 0.0135848 4.34762e-05
0.0141692 0.0146393 2.36495e-05
0.0144703 0.0138163 1.50053e-05
0.0151158 0.0145934 -1.68329e-05
0.0153522 0.0136947 2.59986e-05
0.0161248 0.0144171 -4.8797e-05
0.0162626 0.0133869 -2.94781e-05
0.0171353 0.0141677 -3.80464e-05
0.0179895 0.0146261 6.36771e-07
0.0180508 0.0136988 -4.54767e-05
0.0199326 0.0145336 -2.39016e-05
0.0189244 0.0145416 -3.38088e-05
0.0192536 0.0137377 6.46138e-06
0.00142117 0.0153979 3.1619e-05
0.0010141 0.0162514 -3.75421e-05
0.000498933 0.0153941 1.65265e-05
0.000125852 0.0162431 3.22872e-05
0.00196878 0.0162624 -2.29225e-05
0.00234766 0.0154157 -4.48401e-05
0.00299586 0.0161905 -1.88293e-05
0.00372982 0.0155211 5.22691e-06
0.00397685 0.0163418 -2.84806e-06
0.00463043 0.0152453 3.75063e-05
0.00489954 0.0161972 -2.57249e-06
0.00556423 0.0153356 -3.31627e-05
0.00592053 0.0162182 4.29286e-05
0.00654457 0.0154127 3.83299e-05
0.00690844 0.0162876 8.05502e-06
0.00746745 0.0153717 -1.60873e-07
0.00778715 0.0162823 4.44584e-05
0.00837926 0.0156748 1.77529e-05
0.00918441 0.0160939 1.78253e-05
0.00992414 0.0155467 1.34032e-05
0.0100098 0.0163665 -1.78006e-05
0.0107638 0.0163486 3.69213e-05
0.0109287 0.015495 -2.36735e-05
0.0116195 0.0162674 -3.81553e-05
0.0120105 0.0154053 -3.46021e-05
0.0126177 0.0162174 4.68532e-05
0.0130382 0.0153163 -4.47667e-06
0.0136101 0.0163154 -3.82493e-05
0.0139936 0.0155211 4.44816e-05
0.0145263 0.0162969 2.60965e-05
0.0149097 0.0154788 -1.42244e-05
0.0154448 0.0162596 -2.63927e-05
0.0158456 0.0153997 1.45032e-05
0.016324 0.0162682 1.42827e-05
0.0168672 0.0152248 8.61202e-06
0.0172448 0.0162312 1.04172e-05
0.0177791 0.0154402 -1.6534e-05
0.018249 0.016246 1.14277e-05
0.0186504 0.0153945 3.47044e-05
0.0192236 0.0162476 4.63278e-05
0.0195791 0.0154169 -1.23126e-05
VERTICES 400 800
1 0
1 1
1 2
1 3
1 4
1 5
1 6
1 7
1 8
1 9
1 10
1 11
1 12
1 13
1 14
1 15
1 16
1 17
1 18
1 19
1 20
1 21
1 22
1 23
1 24
1 25
1 26
1 27
1 28
1 29
1 30
1 31
1 32
1 33
1 34
1 35
1 36
1 37
1 38
1 39
1 40
1 41
1 42
1 43
1 44
1 45
1 46
1 47
1 48
1 49
1 50
1 51
1 52
1 53
1 54
1 55
1 56
1 57
1 58
1 59
1 60
1 61
1 62
1 63
1 64
1 65
1 66
1 67
1 68
1 69
1 70
1 71
1 72
1 73
1 74
1 75
1 76
1 77
1 78
1 79
1 80
1 81
1 82
1 83
1 84
1 85
1 86
1 87
1 88
1 89
1 90
1 91
1 92
1 93
1 94
1 95
1 96
1 97
1 98
1 99
1 100
1 101
1 102
1 103
1 104
1 105
1 106
1 107
1 108
1 109
1 110
1 111
1 112
1 113
1 114
1 115
1 116
1 117
1 118
1 119
1 120
1 121
1 122
1 123
1 124
1 125
1 126
1 127
1 128
1 129
1 130
1 131
1 132
1 133
1 134
1 135
1 136
1 137
1 138
1 139
1 140
1 141
1 142
1 143
1 144
1 145
1 146
1 147
1 148
1 149
1 150
1 151
1 152
1 153
1 154
1 155
1 156
1 157
1 158
1 159
1 160
1 161
1 162
1 163
1 164
1 165
1 166
1 167
1 168
1 169
1 170
1 171
1 172
1 173
1 174
1 175
1 176
1 177
1 178
1 179
1 180
1 181
1 182
1 183
1 184
1 185
1 186
1 187
1 188
1 189
1 190
1 191
1 192
1 193
1 194
1 195
1 196
1 197
1 198
1 199
1 200
1 201
1 202
1 203
1 204
1 205
1 206
1 207
1 208
1 209
1 210
1 211
1 212
1 213
1 214
1 215
1 216
1 217
1 218
1 219
1 220
1 221
1 222
1 223
1 224
1 225
1 226
1 227
1 228
1 229
1 230
1 231
1 232
1 233
1 234
1 235
1 236
1 237
1 238
1 239
1 240
1 241
1 242
1 243
1 244
1 245
1 246
1 247
1 248
1 249
1 250
1 251
1 252
1 253
1 254
1 255
1 256
1 257
1 258
1 259
1 260
1 261
1 262
1 263
1 264
1 265
1 266
1 267
1 268
1 269
1 270
1 271
1 272
1 273
1 274
1 275
1 276
1 277
1 278
1 279
1 280
1 281
1 282
1 283
1 284
1 285
1 286
1 287
1 288
1 289
1 290
1 291
1 292
1 293
1 294
1 295
1 296
1 297
1 298
1 299
1 300
1 301
1 302
1 303
1 304
1 305
1 306
1 307
1 308
1 309
1 310
1 311
1 312
1 313
1 314
1 315
1 316
1 317
1 318
1 319
1 320
1 321
1 322
1 323
1 324
1 325
1 326
1 327
1 328
1 329
1 330
1 331
1 332
1 333
1 334
1 335
1 336
1 337
1 338
1 339
1 340
1 341
1 342
1 343
1 344
1 345
1 346
1 347
1 348
1 349
1 350
1 351
1 352
1 353
1 354
1 355
1 356
1 357
1 358
1 359
1 360
1 361
1 362
1 363
1 364
1 365
1 366
1 367
1 368
1 369
1 370
1 371
1 372
1 373
1 374
1 375
1 376
1 377
1 378
1 379
1 380
1 381
1 382
1 383
1 384
1 385
1 386
1 387
1 388
1 389
1 390
1 391
1 392
1 393
1 394
1 395
1 396
1 397
1 398
1 399
POINT_DATA 400
VECTORS f float
1.60261e-08 1.11008e-08 0.0
-3.21315e-09 -6.17627e-09 0.0
-6.72537e-08 3.48415e-08 0.0
9.13721e-09 2.36622e-08 0.0
3.24513e-09 4.53091e-09 0.0
1.28998e-08 3.23136e-09 0.0
3.45174e-09 3.63595e-09 0.0
2.44872e-09 5.99248e-09 0.0
-7.37693e-09 -4.41303e-09 0.0
6.69974e-10 -3.25347e-09 0.0
-2.49957e-10 -1.04614e-08 0.0
-2.37037e-08 -3.14939e-08 0.0
-1.76313e-08 1.7323e-08 0.0
-1.52407e-11 -3.75117e-09 0.0
-3.71652e-09 8.39177e-09 0.0
-4.0142e-08 4.31191e-08 0.0
-5.41327e-09 7.42024e-09 0.0
-9.21441e-09 1.45328e-08 0.0
-6.53003e-08 5.54553e-09 0.0
-1.53938e-08 2.6358e-08 0.0
-4.4661e-09 2.65032e-08 0.0
1.18121e-08 4.25353e-08 0.0
-2.94888e-09 1.40642e-08 0.0
2.56724e-08 4.70202e-08 0.0
5.4284e-08 5.68886e-08 0.0
1.6438e-08 1.25581e-08 0.0
7.01348e-08 -2.41461e-08 0.0
1.15642e-08 -7.83551e-09 0.0
2.65707e-08 -4.34463e-08 0.0
4.64956e-08 -3.30015e-08 0.0
-4.236e-08 3.09666e-08 0.0
2.63544e-08 -2.03938e-10 0.0
-9.16622e-09 5.60648e-08 0.0
3.03641e-08 6.28789e-08 0.0
1.87474e-08 3.97962e-08 0.0
3.80459e-08 8.46193e-08 0.0
2.24918e-08 2.95432e-08 0.0
-6.86649e-10 5.4651e-08 0.0
6.7698e-09 1.64859e-08 0.0
-3.87153e-09 -2.33063e-09 0.0
1.50975e-09 1.33154e-08 0.0
1.05024e-08 1.30057e-08 0.0
4.36062e-10 -9.91041e-09 0.0
2.1697e-08 1.58722e-09 0.0
2.03441e-09 -5.57552e-09 0.0
1.69042e-08 1.20635e-08 0.0
-2.53589e-08 2.5875e-08 0.0
1.85961e-08 2.37102e-08 0.0
-7.92457e-08 -6.7649e-08 0.0
8.95267e-09 -2.27351e-08 0.0
-9.28356e-09 -2.2244e-09 0.0
-1.37828e-09 -4.57077e-09 0.0
2.1693e-09 2.7129e-08 0.0
-9.23281e-09 1.22665e-08 0.0
-8.78486e-09 2.36436e-08 0.0
2.02621e-09 3.64455e-08 0.0
-4.1853e-08 6.09201e-08 0.0
4.7731e-08 3.92393e-08 0.0
-1.86058e-08 1.50584e-08 0.0
1.45409e-08 4.17287e-08 0.0
-9.22552e-09 2.19779e-08 0.0
-1.10488e-09 4.20509e-08 0.0
-2.48128e-08 3.00664e-08 0.0
-5.19448e-08 4.81484e-08 0.0
-3.00927e-09 6.4611e-08 0.0
-9.87933e-08 -3.36459e-08 0.0
-4.20492e-08 -6.19562e-08 0.0
-9.62846e-08 -8.78606e-08 0.0
-3.28416e-08 -5.18866e-08 0.0
-7.44014e-08 -5.98192e-08 0.0
-3.48094e-08 1.42841e-08 0.0
-8.2498e-08 1.18797e-08 0.0
-4.72459e-08 4.42489e-08 0.0
-3.63391e-08 5.97107e-08 0.0
-1.91386e-08 6.72608e-08 0.0
-2.16127e-08 5.71383e-08 0.0
-1.59929e-08 6.74432e-08 0.0
-2.70195e-09 3.97909e-08 0.0
5.5253e-09 3.10246e-08 0.0
2.8088e-09 2.59957e-08 0.0
5.87227e-08 8.07236e-08 0.0
-9.58825e-10 -1.8126e-08 0.0
4.66209e-09 -1.40006e-08 0.0
1.11082e-08 -8.59235e-09 0.0
-4.43405e-09 -5.67723e-08 0.0
-9.84225e-09 -2.34626e-08 0.0
-4.15125e-10 -1.99795e-08 0.0
-2.55853e-08 -1.15784e-09 0.0
-1.80523e-08 1.77027e-08 0.0
-5.40565e-08 1.54043e-08 0.0
-6.41829e-09 -3.85646e-08 0.0
-4.9545e-08 -6.50837e-08 0.0
-1.83866e-09 -5.81064e-08 0.0
2.25231e-08 -1.89812e-08 0.0
2.9874e-08 -5.80375e-08 0.0
7.27499e-08 -3.69254e-08 0.0
8.82383e-08 -3.43805e-08 0.0
7.34904e-08 1.78888e-08 0.0
8.16665e-08 3.24171e-08 0.0
1.3529e-07 -4.27735e-09 0.0
4.95408e-08 2.41588e-08 0.0
5.15176e-08 9.64504e-09 0.0
8.3696e-09 3.55239e-08 0.0
1.81251e-08 7.3431e-08 0.0
-6.82779e-09 5.1773e-08 0.0
1.23839e-07 4.41818e-08 0.0
1.60605e-08 2.19976e-08 0.0
6.60256e-08 1.3713e-08 0.0
-3.72087e-08 -6.87109e-08 0.0
1.891e-08 -5.0466e-08 0.0
-8.19221e-08 -1.02049e-07 0.0
-3.38786e-08 -5.62687e-08 0.0
-9.86792e-08 -2.65634e-08 0.0
-6.20083e-08 9.99901e-09 0.0
-1.95594e-08 9.9418e-09 0.0
-3.7146e-08 3.92482e-08 0.0
-6.9225e-09 1.52139e-08 0.0
-2.80423e-08 3.81727e-08 0.0
-2.44152e-08 -1.38063e-08 0.0
-1.60092e-08 -1.53644e-08 0.0
-8.73963e-09 -7.56003e-08 0.0
-1.90867e-08 -2.20716e-08 0.0
8.92636e-09 -2.62538e-08 0.0
-6.01286e-09 -5.45914e-08 0.0
-6.17718e-09 -1.49791e-08 0.0
-4.02523e-09 -1.05864e-08 0.0
-3.38069e-09 -5.54671e-09 0.0
1.11841e-09 3.831e-09 0.0
-4.38153e-10 7.61593e-09 0.0
3.63145e-09 -6.25823e-09 0.0
5.42424e-09 -1.97799e-08 0.0
7.87761e-09 -7.76446e-09 0.0
5.07753e-09 -2.70038e-08 0.0
4.02461e-09 -3.13221e-08 0.0
1.40687e-08 -5.07049e-08 0.0
-3.86699e-09 -3.93574e-08 0.0
2.13404e-08 -1.82654e-08 0.0
7.06321e-09 -1.67859e-08 0.0
7.14862e-08 -1.2893e-08 0.0
4.29155e-08 -7.30948e-10 0.0
7.84067e-08 6.51389e-08 0.0
-6.23619e-09 -4.48935e-08 0.0
9.09553e-08 4.09243e-08 0.0
6.29673e-08 3.99321e-08 0.0
5.84282e-08 2.46478e-08 0.0
9.42337e-08 2.04816e-08 0.0
1.53193e-07 1.82105e-08 0.0
8.41631e-08 6.78339e-09 0.0
-9.82277e-09 4.67844e-10 0.0
6.84299e-08 1.05321e-08 0.0
3.12294e-08 1.0719e-08 0.0
4.87277e-08 -3.064e-08 0.0
7.47015e-09 -9.69835e-10 0.0
1.92113e-08 -1.99005e-08 0.0
2.75245e-08 6.51273e-09 0.0
8.30017e-08 -7.17023e-08 0.0
6.6408e-08 -5.54854e-08 0.0
-1.5615e-09 -8.63154e-09 0.0
-1.84282e-08 -6.14951e-09 0.0
3.47747e-09 -1.27285e-08 0.0
-2.27473e-08 -3.13585e-08 0.0
-7.67266e-09 -4.74948e-09 0.0
-1.47485e-08 2.61067e-09 0.0
-2.43406e-09 5.84924e-09 0.0
-8.42877e-09 8.0595e-09 0.0
8.73717e-09 1.8442e-08 0.0
1.57009e-08 3.93278e-09 0.0
2.92135e-08 4.65798e-08 0.0
3.75399e-08 4.68308e-08 0.0
4.89783e-08 5.16755e-08 0.0
1.77324e-08 -6.85962e-09 0.0
-3.14744e-08 1.52597e-08 0.0
-5.80985e-09 -8.18804e-09 0.0
-1.94503e-08 6.12189e-09 0.0
-2.09666e-08 -7.70463e-09 0.0
-6.02898e-08 2.13619e-08 0.0
-5.19213e-08 5.30118e-09 0.0
-5.07679e-08 2.67415e-09 0.0
-2.50487e-08 -1.72463e-07 0.0
-6.52392e-08 1.49394e-07 0.0
-3.22891e-07 2.61778e-08 0.0
-2.05156e-08 3.70078e-08 0.0
-2.07603e-08 2.6041e-08 0.0
2.1817e-08 -2.57601e-08 0.0
5.62548e-08 9.08076e-09 0.0
3.25012e-08 -7.08914e-09 0.0
8.03002e-08 1.01913e-08 0.0
2.61574e-08 -5.02353e-09 0.0
1.0298e-07 -4.73924e-09 0.0
-4.73258e-09 -1.58593e-08 0.0
4.07248e-08 -8.72992e-11 0.0
7.74907e-09 -3.26461e-08 0.0
-1.28929e-08 -5.38527e-08 0.0
-6.83784e-10 -2.68382e-08 0.0
-8.50861e-09 -3.84382e-08 0.0
-4.17633e-09 -4.01566e-08 0.0
1.74903e-08 -4.28198e-08 0.0
-3.17567e-08 1.63866e-08 0.0
-1.44323e-08 1.33304e-09 0.0
-2.83746e-08 1.1019e-08 0.0
-9.02515e-09 1.68632e-08 0.0
-2.18286e-08 1.12047e-08 0.0
-5.97799e-09 6.00387e-09 0.0
-8.35137e-09 1.4373e-08 0.0
4.08344e-09 3.05349e-08 0.0
3.26879e-09 4.82794e-08 0.0
4.97058e-09 4.44573e-08 0.0
2.56867e-08 7.80799e-08 0.0
2.72297e-08 7.79822e-08 0.0
1.56453e-09 3.56259e-08 0.0
-3.31705e-09 4.83718e-08 0.0
1.43429e-08 7.95906e-08 0.0
-2.88751e-08 1.99372e-08 0.0
-1.5702e-08 2.70623e-08 0.0
-5.19608e-08 1.64689e-09 0.0
-2.77273e-08 -4.6569e-08 0.0
-6.10954e-08 4.11839e-08 0.0
-4.50881e-08 3.8632e-08 0.0
1.99139e-08 -4.40116e-08 0.0
1.11087e-09 -3.89794e-08 0.0
-1.45002e-08 -8.55023e-08 0.0
-1.81489e-08 -5.42389e-08 0.0
1.41075e-09 -1.3494e-08 0.0
-2.07209e-08 -2.80797e-08 0.0
4.80166e-10 -2.88394e-09 0.0
-3.46456e-08 -4.54373e-08 0.0
-3.77722e-08 -1.65061e-08 0.0
-5.04819e-08 -2.26137e-08 0.0
-7.43613e-08 -4.22215e-08 0.0
-5.3551e-08 -6.84475e-09 0.0
-3.74808e-08 -2.11008e-08 0.0
-1.26702e-09 -4.35075e-08 0.0
-4.51731e-08 -4.26069e-08 0.0
-3.72098e-08 -8.873e-09 0.0
-3.7957e-08 -2.82481e-08 0.0
-4.36463e-08 -1.17098e-08 0.0
-3.49592e-08 -5.22041e-09 0.0
-2.03527e-08 -2.02152e-08 0.0
5.09822e-08 4.26371e-08 0.0
-9.91973e-09 2.20405e-08 0.0
1.95586e-08 4.20882e-08 0.0
2.10235e-08 3.28925e-08 0.0
1.11369e-08 1.70711e-08 0.0
4.74644e-08 1.27481e-08 0.0
9.97234e-09 5.55939e-09 0.0
2.68469e-08 -4.16865e-09 0.0
1.61502e-08 1.09861e-08 0.0
2.11662e-08 3.94533e-09 0.0
2.3569e-08 4.52287e-08 0.0
1.26095e-08 1.51537e-08 0.0
1.34904e-08 5.28321e-08 0.0
1.08671e-08 4.4274e-08 0.0
1.26253e-08 4.52009e-08 0.0
1.0156e-08 6.6898e-08 0.0
-6.65521e-09 4.31012e-08 0.0
3.60225e-08 1.9826e-08 0.0
3.33443e-08 -9.02437e-08 0.0
-5.58307e-09 -8.46041e-08 0.0
1.06161e-08 -1.10805e-07 0.0
1.92011e-08 -1.11559e-07 0.0
2.7493e-08 -6.86685e-08 0.0
3.30938e-09 -6.11388e-08 0.0
3.3684e-08 -3.34287e-08 0.0
1.31487e-09 -1.08455e-08 0.0
-8.4951e-09 8.79029e-09 0.0
-1.549e-08 5.09656e-09 0.0
-1.08504e-08 3.24214e-09 0.0
-1.51295e-08 -3.85208e-09 0.0
-2.16743e-08 -1.45367e-08 0.0
-2.82522e-08 -2.28953e-08 0.0
-4.51587e-08 -2.75026e-08 0.0
5.93451e-09 -1.19291e-09 0.0
-7.99335e-09 -1.17554e-08 0.0
-5.44997e-08 -3.364e-08 0.0
5.34045e-10 2.62482e-08 0.0
-1.42702e-08 5.76984e-09 0.0
2.26207e-08 2.73585e-08 0.0
-1.91825e-08 8.87672e-09 0.0
4.74183e-08 4.56668e-08 0.0
5.60333e-08 7.00273e-08 0.0
3.68424e-08 5.50118e-08 0.0
7.09644e-08 1.64588e-08 0.0
6.74528e-08 -1.62744e-08 0.0
5.57303e-08 -7.12197e-09 0.0
2.1334e-08 -3.38893e-08 0.0
3.02384e-08 -1.27021e-08 0.0
2.66097e-09 -1.50966e-08 0.0
2.35339e-08 -5.32445e-09 0.0
-6.6985e-09 -2.19756e-08 0.0
6.57553e-09 1.45211e-08 0.0
1.15933e-09 -6.1539e-09 0.0
3.23463e-09 1.90915e-08 0.0
-1.8129e-08 1.96199e-08 0.0
8.09113e-09 -2.11389e-08 0.0
2.27951e-08 -3.2238e-08 0.0
-4.74512e-09 -6.18443e-08 0.0
2.03853e-08 1.66221e-08 0.0
1.35643e-08 -3.25828e-08 0.0
1.17007e-09 1.45369e-08 0.0
-1.7786e-08 5.33579e-09 0.0
-1.1177e-08 5.9867e-08 0.0
-1.20678e-08 1.96331e-08 0.0
-3.00885e-09 3.03702e-08 0.0
-1.74344e-08 9.88915e-09 0.0
6.02605e-09 2.36899e-10 0.0
-9.04003e-09 -1.35115e-08 0.0
-1.13186e-09 -4.83947e-09 0.0
-6.35928e-09 -1.63806e-08 0.0
6.1219e-10 -2.14428e-09 0.0
7.70846e-09 6.01069e-09 0.0
4.45998e-09 2.02588e-08 0.0
3.57182e-08 2.91156e-08 0.0
1.30977e-08 2.37858e-08 0.0
1.31944e-08 2.20169e-08 0.0
3.92093e-08 4.60355e-08 0.0
2.64089e-08 4.20365e-08 0.0
3.63774e-08 4.14029e-08 0.0
2.00598e-08 4.563e-08 0.0
-3.3261e-08 1.1825e-08 0.0
5.93897e-09 3.52544e-08 0.0
-3.6387e-08 -3.50139e-08 0.0
2.82314e-08 2.85514e-09 0.0
1.63591e-09 -3.34288e-08 0.0
-3.0117e-08 -3.16206e-08 0.0
1.49267e-08 -2.29593e-08 0.0
-8.17816e-09 -2.55406e-08 0.0
1.45997e-09 -3.43559e-08 0.0
-7.51105e-09 -2.34923e-08 0.0
-4.60694e-09 -2.75514e-08 0.0
-1.64339e-08 -3.89615e-08 0.0
-9.66573e-09 -8.09071e-08 0.0
-5.57405e-08 -6.2271e-08 0.0
1.66071e-09 -3.91418e-08 0.0
-7.59671e-08 -5.81816e-08 0.0
5.4448e-08 5.78637e-08 0.0
1.63766e-08 5.26819e-08 0.0
-8.11537e-09 4.06307e-08 0.0
-6.24232e-08 -6.75047e-09 0.0
1.60592e-08 7.97432e-08 0.0
2.58514e-09 3.34878e-08 0.0
-2.62667e-09 2.96944e-08 0.0
8.50142e-09 1.71477e-08 0.0
1.66148e-09 4.18902e-08 0.0
1.85181e-08 3.7139e-08 0.0
7.91772e-09 3.43694e-08 0.0
3.88291e-08 2.97848e-08 0.0
1.26269e-08 1.14182e-08 0.0
1.79498e-08 1.67114e-08 0.0
1.57249e-08 7.10124e-09 0.0
6.15783e-09 2.08186e-08 0.0
7.71262e-09 8.04403e-09 0.0
-1.75101e-08 2.26361e-08 0.0
4.62136e-10 6.55361e-09 0.0
-2.94433e-08 3.42196e-08 0.0
-3.69567e-08 2.62204e-08 0.0
-3.2208e-09 3.88077e-08 0.0
-4.98035e-08 2.26862e-08 0.0
-5.22824e-08 1.69151e-08 0.0
-9.70979e-09 2.29089e-08 0.0
-2.20886e-08 -1.57235e-08 0.0
-1.66235e-08 -2.4383e-09 0.0
-3.49082e-08 3.14111e-09 0.0
-1.70544e-08 -1.06723e-09 0.0
-2.34425e-08 -1.39076e-08 0.0
-2.68179e-08 -2.42918e-08 0.0
-2.80869e-08 -2.75808e-08 0.0
-2.40734e-08 -2.84982e-08 0.0
-1.15962e-08 -1.55895e-08 0.0
-1.97828e-08 -3.25501e-08 0.0
-1.58852e-08 -2.83556e-08 0.0
-1.29028e-08 -2.71731e-08 0.0
-3.3708e-09 -1.95411e-08 0.0
-1.69712e-08 -4.14537e-08 0.0
7.6256e-09 -2.09016e-08 0.0
-3.36923e-10 2.50905e-09 0.0
8.05707e-09 2.08956e-08 0.0
-5.54625e-08 -1.55389e-08 0.0
-3.73109e-08 -3.65807e-08 0.0
-7.9072e-09 3.43739e-08 0.0
-8.31721e-09 1.08012e-08 0.0
-1.10305e-09 6.86402e-09 0.0
1.22621e-08 3.57235e-08 0.0
1.8094e-09 1.06191e-08 0.0
1.10935e-08 8.41848e-09 0.0
4.03899e-09 9.53606e-09 0.0
3.23008e-08 2.3649e-08 0.0
4.40031e-09 9.67856e-09 0.0
8.54078e-09 2.19184e-08 0.0
1.32259e-09 1.48484e-08 0.0
-1.11251e-09 1.73268e-08 0.0
-5.16032e-09 1.4238e-08 0.0
-2.1647e-08 2.20707e-08 0.0
-7.48419e-09 1.18782e-08 0.0
-5.10255e-08 4.17175e-08 0.0
-2.22994e-08 2.23851e-08 0.0
-2.36473e-08 1.34304e-08 0.0
-2.98595e-08 1.19324e-08 0.0
-4.18976e-08 1.05392e-08 0.0
-2.38145e-08 2.90692e-10 0.0
-3.24579e-08 4.28264e-09 0.0
VECTORS omega float
-0.0322268 -0.180908 0.038879
0.103169 0.0638574 -0.0484598
-0.00897559 -0.0492687 0.000399786
-0.0407117 -0.0688762 0.0115258
0.00127048 0.148242 0.0185155
0.0599663 0.0693828 0.0306555
0.00404775 -0.138275 0.0105803
-0.124491 0.00214281 0.0273092
0.0933008 0.00692985 0.0136504
0.000494809 0.140579 0.00476371
0.00133307 -0.127755 0.0159047
-0.0541417 0.0394083 -0.000675569
0.053702 -0.0411418 0.0399247
-0.00227942 0.129317 0.0125903
0.00113308 -0.110438 0.00984475
0.0295249 -0.0207586 0.0890647
0.00448507 0.126982 -0.0168676
0.00154561 -0.0354921 -0.00997547
0.0363867 -0.104645 0.0961192
-0.00239122 0.0343478 0.00423067
0.0201765 -0.0231082 0.0388297
-0.0259564 0.0246572 0.0294502
0.00329402 -0.0406046 0.0171189
-0.00233123 0.0363086 0.0199365
0.0202346 -0.0231961 0.0108458
0.00275767 -0.0406905 0.00801909
-0.00718516 0.0272245 -0.00137482
-0.00332036 0.0472562 0.0231715
-0.00141451 -0.0353256 0.067234
0.000969553 -0.0403575 -0.0073155
-0.0805177 -0.179807 0.0590474
0.00249389 0.0470066 0.0150054
-0.176329 0.17006 0.124632
0.207894 -0.0426957 -0.0387126
0.067076 -0.0227604 0.101064
-0.00968766 0.0509967 0.00182632
-0.00554243 -0.0544957 0.00578511
0.056031 -0.0743758 0.0818389
-0.0339622 0.0172066 0.100408
0.001315 0.0584519 0.00640718
-0.134786 0.887826 0.127213
-0.280194 -0.20927 -0.0370926
0.0721577 0.0611855 0.0428377
-0.0504323 -0.0764605 0.043495
-0.0689843 -0.0690726 0.00754626
0.0491894 0.0806887 0.0174298
-0.0892067 0.0410057 0.0737309
0.0967611 -0.0617355 -0.00524997
0.018157 -0.0836562 0.118356
-0.0534802 0.0555774 0.0376593
0.111916 -0.0191265 -0.0494411
-0.0608758 0.0532584 0.0666874
-0.0476277 -0.00831458 0.0485477
0.0272024 -0.030037 -0.0236477
-0.0451156 0.0472819 0.0270535
0.0575494 0.0528117 0.0440497
-0.0276179 -0.0620081 -0.0065158
-0.00907312 -5.46152e-05 0.00650089
-0.0387296 0.0767487 -0.0302267
0.0218336 0.00378308 0.00400369
0.0037553 -0.070469 0.0232988
-0.0204661 -0.000101666 -0.00667479
-0.00383422 0.0710742 0.0268919
0.0317347 -0.00705013 0.00275921
0.0183118 -0.0849413 0.0673372
0.00110251 0.0108054 0.00170107
0.00294012 -0.0185697 0.0847414
-0.00962208 -0.00355833 0.019867
0.0119824 -0.000746109 0.0441583
-0.00755788 0.0051942 0.0209965
-0.0297424 0.00634745 -0.00041439
0.0176809 -0.0144452 0.0349227
0.00781902 -0.00407042 0.0415689
-0.0087288 0.0180563 -0.0487462
0.130493 -0.238107 -0.000374854
-0.0458239 -0.0377286 -0.0285658
-0.0609429 0.210093 0.0057057
0.135566 -0.149815 -0.00149881
0.0477904 -0.221774 0.0053058
-0.0810412 0.139008 0.0237473
-0.0870413 0.225669 0.0255199
-0.176929 0.0325096 0.006422
0.237179 0.0618797 0.0576688
0.221788 -0.0429822 0.0616179
-0.183314 -0.0598778 0.00309476
-0.0930397 -0.14344 7.79798e-05