# vtk DataFile Version 2.0
Generated by lpp.py
ASCII
DATASET POLYDATA
POINTS 400 float
0.00132617 0.000443882 3.36586e-05
0.000911417 0.00128552 -1.66342e-05
0.000242866 0.000443281 -3.64628e-05
0.00183417 0.00127832 5.09221e-06
0.00226798 0.00043574 -1.24497e-05
0.00274041 0.00128782 4.63423e-05
0.00324693 0.000515789 4.67087e-05
0.00374442 0.00129155 -1.5404e-05
0.00460574 0.00119551 -2.0603e-05
0.00417323 0.000417307 3.04549e-05
0.00511658 0.000469721 4.04467e-05
0.00566982 0.00130821 -2.65834e-05
0.00664177 0.00128926 -2.02466e-06
0.0060222 0.000418691 -1.20537e-05
0.00693177 0.00044508 3.91278e-05
0.00824421 0.00117609 -1.82355e-06
0.00779489 0.000364539 3.24564e-05
0.00876689 0.000398167 -3.28708e-05
0.00930331 0.00138536 3.24568e-05
0.00975767 0.000490903 -2.76781e-05
0.010387 0.0013119 -4.92787e-05
0.0113788 0.00139187 -4.32784e-06
0.0107654 0.000443877 -3.96086e-06
0.0117803 0.000485387 -1.32742e-05
0.0124067 0.00132925 1.95463e-05
0.0127816 0.000442485 1.3181e-05
0.0134344 0.00122591 3.75182e-05
0.0136142 0.000329714 1.89547e-05
0.014353 0.00161943 1.99029e-05
0.0143651 0.00072705 -4.71808e-05
0.0156475 0.00128535 1.72248e-05
0.0152279 0.000426703 3.7231e-06
0.01655 0.0013163 3.54547e-05
0.0161582 0.000503483 -4.85386e-05
0.0177954 0.00133115 -3.92382e-05
0.0171613 0.000538479 -3.8784e-05
0.0182413 0.000486037 3.096e-05
0.0199975 0.00131691 4.93031e-05
0.0189194 0.00128032 6.72355e-06
0.0192497 0.0004306 -3.72737e-05
0.000907731 0.00230645 5.14548e-06
0.00038282 0.00315866 -4.9345e-05
0.00206685 0.00294726 -3.17454e-05
0.00232302 0.00211984 -1.41959e-06
0.0029243 0.00285064 3.50109e-05
0.00325579 0.00201932 -3.46654e-05
0.00386509 0.0029775 -3.02218e-05
0.00412805 0.00209051 3.70504e-05
0.00498246 0.00300204 3.07542e-05
0.00497546 0.00196055 -2.23732e-05
0.00564413 0.00243819 -2.11247e-06
0.00623503 0.00307366 -3.67063e-05
0.00642265 0.00213328 3.11799e-05
0.00698901 0.00270998 -2.75116e-05
0.00731649 0.00191086 4.80419e-05
0.00772547 0.00291309 1.77683e-05
0.00828524 0.00219892 -3.97226e-05
0.00876336 0.0031191 4.55657e-05
0.00924618 0.00230701 1.80717e-05
0.00980279 0.00312828 -3.93388e-05
0.0101348 0.00222362 2.40231e-05
0.0107368 0.00309829 2.716e-05
0.0110951 0.00228188 -4.78087e-05
0.0116578 0.0030966 -4.25165e-05
0.012058 0.00222649 -4.01526e-05
0.0126251 0.00312592 2.94528e-05
0.0131061 0.00222993 4.21294e-05
0.0136528 0.00314436 2.4953e-06
0.0141661 0.00242042 2.35941e-05
0.0146297 0.00314178 -2.89305e-05
0.0150803 0.00224365 3.21045e-05
0.0156146 0.00308792 2.08022e-05
0.0160043 0.00209169 1.69816e-05
0.0165021 0.00284368 -1.31875e-05
0.0169265 0.00207833 -2.13541e-05
0.0173564 0.0030224 -2.48084e-05
0.0178626 0.00224463 7.17441e-06
0.018442 0.00302938 -3.11061e-05
0.0188603 0.00220933 -6.697e-06
0.0194321 0.00303925 1.88296e-05
0.0198508 0.00217807 2.40593e-05
0.00131757 0.00346628 4.11056e-07
0.00154148 0.0043803 -3.43082e-05
0.000518284 0.00405503 4.11872e-05
0.000792498 0.00499964 1.15215e-05
0.00225299 0.00383328 4.14547e-05
0.00262662 0.00468341 2.79416e-05
0.00313666 0.00368819 -1.57031e-06
0.00359879 0.0047002 5.32063e-06
0.00401887 0.0039164 -2.6529e-06
0.00458478 0.00494692 -3.58607e-05
0.00499533 0.00397215 -2.13321e-05
0.00566087 0.00479157 -4.97251e-05
0.00597099 0.00390427 -2.41619e-05
0.00667463 0.00459883 -2.57589e-05
0.0070196 0.00365631 -4.22335e-05
0.00774398 0.00462609 4.30556e-05
0.00795715 0.00368271 4.42331e-05
0.00877377 0.00406024 -4.39636e-05
0.00979704 0.00487102 4.93343e-05
0.0096057 0.00400114 4.05756e-05
0.00870612 0.00490741 -1.72291e-05
0.0104205 0.00387964 -3.72271e-05
0.0107682 0.00467006 4.50596e-05
0.0112797 0.00394271 1.35023e-05
0.0119337 0.00475666 3.81834e-05
0.0121394 0.00389441 3.14585e-06
0.0129033 0.00492945 -2.4127e-05
0.0131291 0.00399556 1.0814e-05
0.0137635 0.00483798 -4.51984e-05
0.0141854 0.00402785 1.00341e-06
0.0147079 0.00489077 6.87793e-06
0.015154 0.0039582 1.87838e-05
0.0160797 0.00415516 4.33922e-05
0.0167772 0.0046895 2.18197e-05
0.0170289 0.00386852 -2.12721e-05
0.0176608 0.00460885 6.56493e-06
0.0179612 0.00377772 9.36883e-06
0.0186957 0.00453891 3.03201e-05
0.0194075 0.00392561 1.43967e-05
0.0197511 0.00478952 -2.66714e-05
0.00119674 0.00595059 1.46596e-05
0.000324238 0.00650301 -3.99128e-05
8.55004e-05 0.00571636 -3.26099e-05
0.00181307 0.00521798 -7.07934e-06
0.00213238 0.00645922 -2.06108e-05
0.00263028 0.00563276 3.54227e-05
0.00312797 0.00641124 -2.96496e-05
0.00358354 0.00562863 1.90715e-05
0.00444306 0.00591232 1.72497e-05
0.00535677 0.0057612 2.50127e-05
0.00595096 0.00650212 -4.27825e-05
0.00629228 0.00553439 2.43943e-05
0.00679446 0.00637461 -3.07296e-05
0.00720294 0.00549544 -2.4969e-05
0.00770209 0.00633548 1.47771e-05
0.00817603 0.00555972 -2.62417e-05
0.00863724 0.0063315 -3.20614e-05
0.00925563 0.00565972 -4.70071e-05
0.0101144 0.00574799 4.476e-05
0.0109287 0.00555243 -5.06646e-06
0.0113841 0.00651165 -4.22073e-05
0.0117564 0.00566719 2.60985e-05
0.0123348 0.00640532 1.83575e-05
0.0125195 0.00559858 -2.28987e-05
0.0132156 0.00609367 2.90979e-05
0.0141556 0.0057718 4.28851e-05
0.0151785 0.00589387 -1.46308e-05
0.0156784 0.00502183 -7.56683e-06
0.0160561 0.00623926 -4.83823e-05
0.016516 0.00551945 2.89194e-05
0.016988 0.00632271 3.21564e-05
0.0173182 0.00537654 -4.85919e-05
0.0180763 0.00628252 -1.12464e-05
0.0181425 0.00535595 3.12852e-05
0.0192917 0.00636044 2.46256e-05
0.0190578 0.00549124 -4.44854e-05
0.00126955 0.00681438 -2.73404e-05
0.00114647 0.00795923 -3.38667e-05
0.000605319 0.00726002 -4.2113e-05
0.000114779 0.00807624 1.49646e-05
0.00190824 0.00742556 7.74856e-06
0.00206058 0.00829875 5.5329e-07
0.00283924 0.00725626 3.67542e-05
0.00293342 0.0082 1.2865e-05
0.00375174 0.00772302 -4.70278e-05
0.0040029 0.00673769 -1.13161e-05
0.00472641 0.00768252 1.72877e-05
0.00505858 0.006774 -4.33679e-05
0.00569265 0.00765949 7.98975e-06
0.00646895 0.00722426 -4.89198e-05
0.00704582 0.00808611 -1.8846e-05
0.00736578 0.00719534 -2.80691e-05
0.00792783 0.00787558 -4.34141e-05
0.00824599 0.00712281 2.59556e-05
0.00884842 0.0078468 -3.81694e-05
0.00941923 0.00692288 -2.37608e-06
0.00983834 0.00782752 -1.57412e-05
0.0104092 0.00667736 -1.47472e-05
0.0107472 0.00823491 4.979e-05
0.0110315 0.00735991 2.22644e-05
0.0117262 0.00821033 -4.55597e-05
0.0120418 0.00730092 -4.5975e-05
0.01286 0.0078525 4.23607e-05
0.0130239 0.00699307 4.20701e-05
0.0138535 0.00781637 -5.04024e-06
0.0139076 0.00679945 1.64328e-05
0.0148567 0.00792245 -1.6913e-05
0.0149111 0.00691209 -4.21217e-05
0.0158252 0.00811097 -3.94419e-05
0.0159188 0.00713289 -1.21974e-05
0.0166871 0.00770131 -3.70828e-05
0.017492 0.00715075 -3.33274e-05
0.0181592 0.00805594 -3.83096e-05
0.0185084 0.00717483 -2.02095e-05
0.0191804 0.0077818 -4.84051e-05
0.0197602 0.00712987 -3.46879e-05
0.00160395 0.0091502 2.66777e-05
0.000807263 0.0087584 -3.96098e-06
0.000737457 0.00962903 -1.72888e-05
0.002324 0.00997634 2.41907e-05
0.00258654 0.00906495 4.87165e-05
0.00323498 0.00972713 7.50784e-06
0.00348301 0.00889121 -7.08428e-06
0.00419683 0.00954441 6.12283e-06
0.00436269 0.00858029 1.74262e-06
0.00517252 0.00943775 -2.81666e-05
0.0053585 0.00853103 -1.04316e-05
0.00611955 0.00937709 9.49774e-06
0.00623869 0.00848881 -4.45245e-05
0.00695048 0.00902692 3.54547e-06
0.00741225 0.0098704 -2.7703e-05
0.00779481 0.00871457 -4.92713e-05
0.00820895 0.00951227 1.26179e-05
0.00871417 0.00878985 4.93873e-05
0.00910838 0.00970349 -4.18982e-05
0.00972496 0.00886046 -9.33208e-06
0.0106775 0.00928931 -3.72943e-05
0.0113829 0.0098934 1.32074e-05
0.0116208 0.00907994 3.24679e-05
0.0123069 0.00976049 -1.82378e-05
0.0125589 0.00876128 4.17083e-05
0.0132238 0.00962523 2.0062e-05
0.0135602 0.00880475 -3.30909e-05
0.0140459 0.00959934 -4.57402e-05
0.0145497 0.00882805 -3.07794e-05
0.0149225 0.00967044 4.85236e-05
0.0154991 0.00898106 -3.2558e-05
0.0158163 0.00994014 -4.73944e-05
0.016471 0.00883763 -2.5672e-05
0.0167088 0.00969315 -3.5681e-05
0.0173261 0.008351 2.81917e-06
0.0174317 0.009232 -4.5525e-06
0.0183269 0.00993146 1.70983e-05
0.0199621 0.00908487 -3.41589e-05
0.0183487 0.00898668 -3.29151e-05
0.0191551 0.00955473 4.46827e-05
0.0191546 0.0086111 -3.50995e-05
0.00161759 0.0115948 -2.75196e-05
0.00143154 0.0100977 -3.628e-05
0.00101435 0.0108598 -3.81409e-05
0.00010716 0.0110251 4.26166e-05
0.00192445 0.0107564 2.8646e-05
0.00256327 0.0113924 1.79805e-07
0.00298081 0.0105897 -3.0738e-05
0.00353785 0.011316 1.32908e-05
0.00387678 0.0104449 3.19371e-06
0.0045013 0.0112758 -4.05009e-05
0.00489572 0.0103853 2.58338e-05
0.00544158 0.0112339 5.57899e-06
0.0058131 0.0102251 3.55182e-05
0.00634508 0.0110323 -2.60959e-05
0.00662802 0.0101981 1.90003e-05
0.00727605 0.0108295 2.40728e-05
0.00805902 0.0115379 -1.09524e-05
0.00823451 0.0105087 -2.41459e-05
0.00921738 0.0106622 1.14157e-05
0.00900776 0.0115589 -2.28614e-05
0.00998082 0.0100987 7.96265e-06
0.0100652 0.0110615 4.36203e-05
0.0107833 0.0104741 4.40746e-05
0.0109852 0.0113635 4.26806e-05
0.0117291 0.0107236 1.59016e-05
0.0126601 0.0106155 -4.05226e-06
0.0131359 0.0112624 -3.49974e-05
0.0135863 0.0104321 -2.12959e-05
0.0139497 0.0112398 -3.47829e-05
0.0145022 0.0103612 -6.10015e-06
0.0148612 0.0112148 -4.9699e-05
0.0158246 0.0110014 -3.49785e-05
0.0165982 0.0105625 -3.04875e-05
0.0166398 0.0115683 2.14731e-05
0.0173325 0.0110701 4.23831e-06
0.0174679 0.0102046 1.54215e-05
0.0183079 0.0109068 -4.02054e-05
0.0190923 0.01043 -1.5365e-05
0.0192275 0.01131 -1.60515e-05
0.0199481 0.0101228 -4.17269e-05
0.00140366 0.012654 1.39627e-05
0.000698538 0.0118008 -9.96495e-06
0.00046354 0.01273 2.195e-05
0.00227686 0.0123215 1.50647e-05
0.00295755 0.0130597 -2.83946e-05
0.00320167 0.012145 2.84116e-05
0.00405556 0.012944 -8.8818e-06
0.00408077 0.0120337 -1.71454e-05
0.004957 0.0130889 4.3363e-05
0.00505394 0.0121534 3.19528e-05
0.00580594 0.0129019 -3.24457e-07
0.00607602 0.011961 1.74786e-05
0.00666658 0.0126468 -2.9504e-05
0.00708951 0.0117951 2.61725e-05
0.00757905 0.0126999 -7.28073e-06
0.00856354 0.0124189 2.21972e-05
0.00930396 0.0130105 3.4178e-05
0.00983048 0.0119906 -3.43726e-05
0.0101458 0.0129269 2.4284e-05
0.0107678 0.0122969 4.99362e-05
0.0111644 0.013138 1.79808e-05
0.0119219 0.0117307 3.01021e-05
0.0120813 0.0128007 -4.81269e-05
0.0128314 0.0119911 3.49515e-06
0.0131336 0.0128311 8.09002e-06
0.0137808 0.0121018 -1.27408e-05
0.014272 0.0129712 1.51186e-05
0.0147395 0.012196 -2.52694e-05
0.0154802 0.0127979 -2.24734e-05
0.015601 0.0118901 -4.84058e-07
0.0163366 0.0124315 2.73575e-05
0.0171511 0.0123297 2.6071e-05
0.0172457 0.0131971 -3.7354e-05
0.0179021 0.0118429 -4.54593e-05
0.0179759 0.0127927 -4.8395e-05
0.0187168 0.0130942 7.82155e-06
0.0188654 0.0121958 -1.47463e-05
0.0195575 0.0129237 -3.72359e-05
0.0198029 0.01205 -4.13942e-05
0.00111868 0.0135727 -4.1589e-05
0.000965972 0.0145444 -1.31753e-05
0.000186041 0.0136117 -1.17246e-06
0.00191546 0.0145659 -5.27218e-06
0.00202392 0.013343 2.70269e-05
0.00268202 0.0140034 -4.69919e-05
0.00308767 0.0148444 2.49655e-05
0.00362031 0.0138004 2.96183e-05
0.00399593 0.0146147 1.43924e-05
0.00461023 0.013905 -3.62044e-05
0.00522526 0.0145404 2.52958e-05
0.00555197 0.0137735 -4.96651e-05
0.00608167 0.0145264 -1.66336e-06
0.00646196 0.0136467 -6.05535e-06
0.00700334 0.0145727 -2.79437e-05
0.00744586 0.0137018 1.57621e-06
0.0080627 0.0145646 -3.93501e-06
0.00839668 0.0134471 4.44824e-05
0.00913185 0.0140479 4.05064e-05
0.00977626 0.0147252 -8.94147e-06
0.00896682 0.0149822 -1.15952e-07
0.0100954 0.01385 -3.1985e-05
0.0106167 0.014653 2.67646e-06
0.0110298 0.0139558 8.79731e-06
0.011501 0.0146904 -1.90989e-05
0.0118214 0.0137571 1.18363e-05
0.012338 0.0144654 -1.70971e-05
0.0127037 0.0136425 2.04004e-05
0.013263 0.0143816 -4.99115e-05
0.0136552 0.0135852 4.34762e-05
0.0142005 0.0146394 2.36495e-05
0.0145004 0.0138164 1.50053e-05
0.0151471 0.0145936 -1.68329e-05
0.0153822 0.0136949 2.59986e-05
0.0161561 0.0144173 -4.8797e-05
0.016292 0.0133868 -2.94781e-05
0.0171662 0.0141678 -3.80464e-05
0.0180209 0.0146261 6.36771e-07
0.0180804 0.0136986 -4.54767e-05
0.0199639 0.0145336 -2.39016e-05
0.0189558 0.0145418 -3.38088e-05
0.0192834 0.0137379 6.46138e-06
0.00145379 0.015398 3.1619e-05
0.00104827 0.0162515 -3.75421e-05
0.000531565 0.0153939 1.65265e-05
0.00015987 0.0162431 3.22872e-05
0.00200302 0.0162625 -2.29225e-05
0.00238046 0.0154158 -4.48401e-05
0.00302992 0.0161905 -1.88293e-05
0.0037628 0.0155208 5.22691e-06
0.004011 0.0163415 -2.84806e-06
0.00466311 0.0152446 3.75063e-05
0.00493292 0.016197 -2.57249e-06
0.00559683 0.0153351 -3.31627e-05
0.00595413 0.016218 4.29286e-05
0.00657748 0.0154127 3.83299e-05
0.0069426 0.0162874 8.05502e-06
0.0074986 0.0153699 -1.60873e-07
0.0078215 0.0162825 4.44584e-05
0.00841204 0.0156745 1.77529e-05
0.00921757 0.0160937 1.78253e-05
0.00995716 0.0155478 1.34032e-05
0.010044 0.0163671 -1.78006e-05
0.0107982 0.0163489 3.69213e-05
0.0109618 0.0154957 -2.36735e-05
0.011654 0.0162676 -3.81553e-05
0.0120437 0.0154056 -3.46021e-05
0.0126521 0.0162178 4.68532e-05
0.0130711 0.0153169 -4.47667e-06
0.0136444 0.0163157 -3.82493e-05
0.0140267 0.0155213 4.44816e-05
0.0145604 0.016297 2.60965e-05
0.0149425 0.0154789 -1.42244e-05
0.0154788 0.0162595 -2.63927e-05
0.0158782 0.0153997 1.45032e-05
0.0163583 0.0162682 1.42827e-05
0.0168996 0.0152249 8.61202e-06
0.0172789 0.0162315 1.04172e-05
0.0178117 0.0154404 -1.6534e-05
0.018283 0.0162461 1.14277e-05
0.018683 0.0153946 3.47044e-05
0.0192577 0.0162476 4.63278e-05
0.0196118 0.0154169 -1.23126e-05
VERTICES 400 800
1 0
1 1
1 2
1 3
1 4
1 5
1 6
1 7
1 8
1 9
1 10
1 11
1 12
1 13
1 14
1 15
1 16
1 17
1 18
1 19
1 20
1 21
1 22
1 23
1 24
1 25
1 26
1 27
1 28
1 29
1 30
1 31
1 32
1 33
1 34
1 35
1 36
1 37
1 38
1 39
1 40
1 41
1 42
1 43
1 44
1 45
1 46
1 47
1 48
1 49
1 50
1 51
1 52
1 53
1 54
1 55
1 56
1 57
1 58
1 59
1 60
1 61
1 62
1 63
1 64
1 65
1 66
1 67
1 68
1 69
1 70
1 71
1 72
1 73
1 74
1 75
1 76
1 77
1 78
1 79
1 80
1 81
1 82
1 83
1 84
1 85
1 86
1 87
1 88
1 89
1 90
1 91
1 92
1 93
1 94
1 95
1 96
1 97
1 98
1 99
1 100
1 101
1 102
1 103
1 104
1 105
1 106
1 107
1 108
1 109
1 110
1 111
1 112
1 113
1 114
1 115
1 116
1 117
1 118
1 119
1 120
1 121
1 122
1 123
1 124
1 125
1 126
1 127
1 128
1 129
1 130
1 131
1 132
1 133
1 134
1 135
1 136
1 137
1 138
1 139
1 140
1 141
1 142
1 143
1 144
1 145
1 146
1 147
1 148
1 149
1 150
1 151
1 152
1 153
1 154
1 155
1 156
1 157
1 158
1 159
1 160
1 161
1 162
1 163
1 164
1 165
1 166
1 167
1 168
1 169
1 170
1 171
1 172
1 173
1 174
1 175
1 176
1 177
1 178
1 179
1 180
1 181
1 182
1 183
1 184
1 185
1 186
1 187
1 188
1 189
1 190
1 191
1 192
1 193
1 194
1 195
1 196
1 197
1 198
1 199
1 200
1 201
1 202
1 203
1 204
1 205
1 206
1 207
1 208
1 209
1 210
1 211
1 212
1 213
1 214
1 215
1 216
1 217
1 218
1 219
1 220
1 221
1 222
1 223
1 224
1 225
1 226
1 227
1 228
1 229
1 230
1 231
1 232
1 233
1 234
1 235
1 236
1 237
1 238
1 239
1 240
1 241
1 242
1 243
1 244
1 245
1 246
1 247
1 248
1 249
1 250
1 251
1 252
1 253
1 254
1 255
1 256
1 257
1 258
1 259
1 260
1 261
1 262
1 263
1 264
1 265
1 266
1 267
1 268
1 269
1 270
1 271
1 272
1 273
1 274
1 275
1 276
1 277
1 278
1 279
1 280
1 281
1 282
1 283
1 284
1 285
1 286
1 287
1 288
1 289
1 290
1 291
1 292
1 293
1 294
1 295
1 296
1 297
1 298
1 299
1 300
1 301
1 302
1 303
1 304
1 305
1 306
1 307
1 308
1 309
1 310
1 311
1 312
1 313
1 314
1 315
1 316
1 317
1 318
1 319
1 320
1 321
1 322
1 323
1 324
1 325
1 326
1 327
1 328
1 329
1 330
1 331
1 332
1 333
1 334
1 335
1 336
1 337
1 338
1 339
1 340
1 341
1 342
1 343
1 344
1 345
1 346
1 347
1 348
1 349
1 350
1 351
1 352
1 353
1 354
1 355
1 356
1 357
1 358
1 359
1 360
1 361
1 362
1 363
1 364
1 365
1 366
1 367
1 368
1 369
1 370
1 371
1 372
1 373
1 374
1 375
1 376
1 377
1 378
1 379
1 380
1 381
1 382
1 383
1 384
1 385
1 386
1 387
1 388
1 389
1 390
1 391
1 392
1 393
1 394
1 395
1 396
1 397
1 398
1 399
POINT_DATA 400
VECTORS f float
4.04486e-09 3.78298e-09 0.0
1.52464e-08 8.11495e-09 0.0
3.13346e-09 7.92462e-09 0.0
1.15433e-08 7.6951e-09 0.0
5.25629e-09 4.1485e-09 0.0
9.75919e-09 4.97853e-09 0.0
5.43463e-09 2.3678e-09 0.0
4.66203e-09 2.08663e-09 0.0
3.91005e-09 6.23221e-10 0.0
2.14608e-09 1.66463e-10 0.0
1.28303e-09 -1.95752e-10 0.0
5.6353e-09 -6.30523e-10 0.0
2.01201e-09 9.17567e-10 0.0
8.81639e-10 -5.87428e-11 0.0
1.241e-09 1.91183e-10 0.0
1.65694e-09 -3.34902e-09 0.0
3.11523e-10 -6.08645e-10 0.0
3.26273e-10 -1.00074e-09 0.0
1.01369e-08 2.5132e-10 0.0
1.26914e-09 -1.62754e-09 0.0
2.30975e-09 4.50439e-10 0.0
2.63522e-09 7.61798e-10 0.0
7.59166e-10 1.40188e-10 0.0
4.42358e-10 1.88641e-10 0.0
1.23225e-09 8.74078e-10 0.0
-1.88151e-12 6.47268e-10 0.0
-3.95305e-10 3.96155e-09 0.0
-4.77575e-10 1.02596e-09 0.0
1.95741e-09 4.21376e-09 0.0
-3.00148e-09 2.34979e-09 0.0
-6.85799e-09 4.76358e-09 0.0
-3.25581e-09 3.43451e-09 0.0
6.43902e-09 6.14674e-09 0.0
-1.64323e-09 9.54451e-09 0.0
5.93013e-09 6.71189e-09 0.0
6.74211e-10 8.78687e-09 0.0
1.33215e-09 5.82065e-09 0.0
1.62531e-08 1.82867e-08 0.0
7.00795e-09 7.87417e-09 0.0
8.33601e-10 4.08901e-09 0.0
1.67823e-08 1.05322e-08 0.0
1.66847e-08 1.631e-08 0.0
1.80538e-08 9.41414e-09 0.0
1.92456e-08 1.13316e-08 0.0
1.53611e-08 7.86411e-09 0.0
1.3298e-08 6.89159e-09 0.0
3.32161e-08 1.25832e-08 0.0
1.09662e-08 4.37468e-09 0.0
1.14264e-08 1.41426e-08 0.0
8.23344e-09 -2.96221e-11 0.0
4.01909e-09 4.91273e-09 0.0
1.1926e-08 6.34196e-09 0.0
5.24174e-09 4.4149e-09 0.0
4.30363e-09 2.15661e-09 0.0
2.04623e-09 2.18443e-09 0.0
6.47329e-09 -3.04892e-11 0.0
6.39348e-09 -6.31963e-09 0.0
8.77003e-09 -5.75984e-09 0.0
4.37005e-09 -1.26978e-09 0.0
1.08004e-08 -1.71365e-09 0.0
7.06002e-09 1.23827e-09 0.0
7.09616e-09 2.56881e-10 0.0
7.95306e-09 2.03238e-09 0.0
1.07478e-08 3.84282e-09 0.0
5.60892e-09 1.38738e-09 0.0
1.32793e-08 8.58782e-09 0.0
8.30433e-09 8.07981e-09 0.0
1.46769e-08 8.22285e-09 0.0
5.56595e-09 4.9695e-09 0.0
1.44368e-08 7.43616e-09 0.0
3.82239e-09 6.98387e-09 0.0
1.31304e-08 3.35964e-09 0.0
2.22991e-09 1.8108e-09 0.0
8.11295e-09 2.29261e-09 0.0
1.17446e-08 6.62281e-09 0.0
9.17179e-09 1.21387e-08 0.0
1.73627e-08 1.48873e-08 0.0
1.33591e-08 1.35988e-08 0.0
1.71251e-08 1.44625e-08 0.0
1.88275e-08 2.408e-08 0.0
2.31389e-08 2.89802e-08 0.0
3.38312e-08 1.63599e-08 0.0
2.15767e-08 8.16761e-09 0.0
2.48761e-08 1.22152e-08 0.0
4.71192e-08 1.83597e-08 0.0
2.42271e-08 1.00119e-08 0.0
2.84716e-08 7.3388e-09 0.0
2.27624e-08 8.56311e-09 0.0
3.20688e-08 1.30568e-08 0.0
3.12743e-08 1.18356e-08 0.0
4.9018e-08 1.69353e-08 0.0
4.09398e-08 1.79506e-08 0.0
5.2178e-08 1.12342e-08 0.0
2.1537e-08 5.98773e-09 0.0
4.15086e-08 2.29599e-09 0.0
2.2776e-08 1.09347e-10 0.0
4.94121e-08 -1.75511e-09 0.0
1.86645e-08 -1.87029e-09 0.0
2.02014e-08 -5.01646e-09 0.0
2.84553e-08 -5.0061e-10 0.0
1.33639e-08 -3.73029e-10 0.0
2.91051e-08 -5.37567e-09 0.0
8.95764e-09 1.2055e-09 0.0
1.63631e-08 4.38633e-09 0.0
7.70636e-09 2.33968e-09 0.0
2.17684e-08 6.02625e-09 0.0
7.92751e-09 4.0158e-09 0.0
2.38372e-08 4.37705e-09 0.0
2.5001e-08 1.06992e-08 0.0
1.9126e-08 5.28993e-09 0.0
2.28585e-08 8.38146e-09 0.0
2.76128e-08 7.47244e-09 0.0
2.16891e-08 8.0191e-09 0.0
2.30667e-08 1.12189e-08 0.0
1.84622e-08 1.1737e-08 0.0
2.32548e-08 1.81667e-08 0.0
1.96329e-08 1.31845e-08 0.0
2.24509e-08 1.884e-08 0.0
4.03654e-08 2.88848e-08 0.0
1.63386e-08 1.41276e-08 0.0
3.44349e-08 2.29138e-08 0.0
2.82868e-08 8.15404e-09 0.0
1.75672e-08 7.09307e-09 0.0
3.38202e-08 1.48631e-08 0.0
3.23438e-08 7.66003e-09 0.0
3.2845e-08 2.13922e-09 0.0
3.47192e-08 5.16365e-09 0.0
2.22183e-08 3.795e-09 0.0
4.68983e-08 1.69596e-08 0.0
2.95005e-08 9.71232e-09 0.0
5.30638e-08 4.36845e-09 0.0
2.26179e-08 -5.86256e-10 0.0
2.56187e-08 2.47897e-09 0.0
3.44203e-08 -4.28363e-09 0.0
4.05546e-08 -2.29172e-09 0.0
3.99981e-08 -3.275e-09 0.0
3.24285e-08 -1.98903e-09 0.0
4.16012e-08 -6.41592e-09 0.0
3.62856e-08 -3.1362e-09 0.0
2.99936e-08 6.9442e-09 0.0
2.81962e-08 4.68314e-09 0.0
3.9339e-08 1.61558e-09 0.0
2.78973e-08 2.07312e-09 0.0
3.39309e-08 -1.29741e-09 0.0
1.69312e-08 6.51595e-10 0.0
3.0901e-08 -7.41941e-10 0.0
4.43926e-08 8.06559e-09 0.0
3.57859e-08 8.49109e-09 0.0
2.53692e-08 8.51781e-09 0.0
2.76588e-08 6.13806e-09 0.0
2.68537e-08 1.21957e-08 0.0
1.99682e-08 9.57786e-09 0.0
1.73654e-08 1.0623e-08 0.0
3.80463e-08 1.85408e-08 0.0
2.47799e-08 1.60437e-08 0.0
8.08259e-09 1.93201e-08 0.0
2.31524e-08 1.9671e-08 0.0
1.51299e-08 2.95662e-09 0.0
2.80236e-08 3.89959e-09 0.0
1.61843e-08 5.27958e-09 0.0
3.35325e-08 8.1993e-09 0.0
2.10114e-08 -1.91757e-11 0.0
1.4834e-08 -1.12769e-09 0.0
2.61555e-08 2.84649e-09 0.0
1.50628e-08 -1.17819e-09 0.0
1.98261e-08 -3.17132e-09 0.0
3.17693e-08 1.20026e-08 0.0
1.87103e-08 -9.72607e-09 0.0
4.55796e-08 -9.93399e-09 0.0
2.4396e-08 -1.05827e-08 0.0
2.99254e-08 -5.44563e-09 0.0
3.18801e-08 -1.21004e-08 0.0
2.80745e-08 -5.22033e-09 0.0
1.64176e-08 -2.83138e-09 0.0
2.73795e-08 -2.92341e-09 0.0
3.33457e-08 2.78385e-09 0.0
4.52918e-08 1.52686e-09 0.0
2.55499e-08 2.38772e-09 0.0
5.22026e-08 1.72739e-08 0.0
3.55679e-08 -9.33902e-09 0.0
3.37315e-08 1.59187e-09 0.0
3.32105e-08 -1.09115e-08 0.0
4.34117e-08 -5.92852e-09 0.0
2.9474e-08 -4.75558e-09 0.0
2.75138e-08 -1.53293e-09 0.0
4.83952e-08 -5.28715e-09 0.0
3.5028e-08 1.77977e-09 0.0
3.46075e-08 -1.57512e-09 0.0
5.26843e-08 5.99315e-09 0.0
3.85106e-08 -1.1722e-09 0.0
3.75655e-08 2.75373e-09 0.0
3.6108e-08 6.15778e-09 0.0
4.1041e-08 1.59773e-08 0.0
2.70583e-08 3.91138e-09 0.0
3.90574e-08 1.0126e-08 0.0
2.38379e-08 5.41714e-09 0.0
2.5479e-08 8.68317e-09 0.0
2.30343e-08 -1.47145e-09 0.0
1.26011e-08 1.46169e-09 0.0
1.9741e-08 7.30649e-10 0.0
1.73012e-08 -5.90647e-09 0.0
1.83039e-08 -3.49722e-09 0.0
1.21791e-08 -4.59482e-09 0.0
1.26945e-08 -4.68762e-09 0.0
1.72132e-08 -1.06992e-08 0.0
2.67265e-08 -1.42943e-08 0.0
1.35623e-08 -9.68824e-09 0.0
2.02565e-08 -1.27283e-08 0.0
1.64423e-08 -1.24922e-08 0.0
1.15372e-08 -7.87174e-09 0.0
1.55503e-08 -9.1902e-09 0.0
1.86457e-08 -7.67119e-09 0.0
1.64757e-08 -3.76224e-09 0.0
1.5715e-08 -3.37934e-09 0.0
2.17264e-08 -6.49672e-10 0.0
2.06555e-08 6.70237e-10 0.0
3.7257e-08 2.98813e-09 0.0
3.59854e-08 -7.88716e-09 0.0
2.33513e-08 -1.13734e-08 0.0
2.31259e-08 -9.62153e-09 0.0
4.37196e-08 -1.93843e-08 0.0
4.38765e-08 -1.49395e-08 0.0
1.88819e-08 -8.30794e-09 0.0
3.69398e-08 -1.09121e-08 0.0
2.14467e-08 -9.38131e-09 0.0
3.96411e-08 -8.1849e-09 0.0
2.59623e-08 -7.96777e-09 0.0
3.4901e-08 -5.3666e-09 0.0
4.06908e-08 -9.29379e-09 0.0
3.46988e-08 -3.65958e-09 0.0
2.16236e-08 -3.28359e-09 0.0
2.40204e-08 2.4024e-09 0.0
3.09576e-08 -4.23213e-10 0.0
2.51543e-08 -1.7052e-09 0.0
3.13642e-08 3.46756e-09 0.0
3.02259e-08 1.81621e-09 0.0
2.39552e-08 9.3426e-10 0.0
1.9391e-08 2.32761e-09 0.0
1.46689e-08 -6.09512e-09 0.0
1.34449e-08 -2.27609e-09 0.0
1.27793e-08 -3.48406e-09 0.0
1.36559e-08 -1.68409e-09 0.0
9.44158e-09 -3.42458e-09 0.0
1.68376e-08 -9.10614e-09 0.0
1.09082e-08 -5.32774e-09 0.0
1.29965e-08 -6.97337e-09 0.0
2.06369e-08 -1.14132e-08 0.0
1.6116e-08 -8.16085e-09 0.0
2.43263e-08 -1.5696e-08 0.0
1.55671e-08 -6.61764e-09 0.0
1.44932e-08 -9.0322e-09 0.0
1.81838e-08 -5.12188e-09 0.0
1.18379e-08 -3.94471e-09 0.0
1.97905e-08 -4.52251e-09 0.0
2.81049e-08 1.04709e-08 0.0
2.26896e-08 -2.66922e-09 0.0
2.05985e-08 2.79375e-09 0.0
2.48666e-08 7.84676e-09 0.0
1.59466e-08 -5.12164e-09 0.0
2.80803e-08 -7.02287e-09 0.0
2.01506e-08 -1.13173e-08 0.0
3.51024e-08 -1.82958e-08 0.0
3.42482e-08 -2.00556e-08 0.0
2.54803e-08 -1.32012e-08 0.0
2.37137e-08 -1.28541e-08 0.0
4.15932e-08 -2.10447e-08 0.0
1.99613e-08 -1.0996e-08 0.0
2.52556e-08 -1.20358e-08 0.0
4.03786e-08 -2.11165e-08 0.0
3.14661e-08 -1.20989e-08 0.0
3.02301e-08 -7.1003e-09 0.0
2.52637e-08 -8.64029e-09 0.0
1.73364e-08 -3.66099e-09 0.0
3.21788e-08 -4.05688e-09 0.0
2.2772e-08 -4.36984e-09 0.0
1.63629e-08 -8.15643e-10 0.0
1.65089e-08 -2.91064e-09 0.0
2.02108e-08 8.46999e-10 0.0
9.05586e-09 -7.03602e-09 0.0
1.653e-08 -5.04121e-09 0.0
1.07716e-08 -4.66506e-09 0.0
1.31458e-08 -9.08347e-09 0.0
1.2329e-08 -1.05678e-08 0.0
1.25781e-08 -7.48325e-09 0.0
1.59403e-08 -8.67674e-09 0.0
1.31567e-08 -6.26464e-09 0.0
1.04642e-08 -9.81754e-10 0.0
2.52598e-08 -7.86451e-09 0.0
2.30727e-08 5.0339e-10 0.0
2.26426e-08 -4.06625e-09 0.0
1.36982e-08 2.2879e-09 0.0
3.06232e-08 5.18319e-09 0.0
3.08905e-08 1.92258e-08 0.0
3.277e-08 1.59391e-08 0.0
3.11613e-08 -8.63497e-09 0.0
3.26215e-08 -1.58733e-09 0.0
2.24144e-08 -1.17252e-08 0.0
5.18178e-08 -1.7528e-08 0.0
2.44516e-08 -1.4875e-08 0.0
4.84189e-08 -2.99041e-08 0.0
5.21746e-08 -3.34977e-08 0.0
2.70528e-08 -1.66077e-08 0.0
4.08917e-08 -2.49576e-08 0.0
4.16723e-08 -2.37562e-08 0.0
2.63021e-08 -1.42846e-08 0.0
3.40568e-08 -1.92573e-08 0.0
1.77418e-08 -1.08479e-08 0.0
2.88872e-08 -1.40594e-08 0.0
2.33888e-08 -9.44724e-09 0.0
1.22573e-08 -4.0528e-09 0.0
1.44441e-08 -6.09901e-09 0.0
2.95852e-08 -8.50567e-09 0.0
1.04613e-08 -3.71831e-09 0.0
7.34059e-09 -3.1095e-09 0.0
1.83003e-08 -6.06213e-09 0.0
1.11761e-08 -4.68786e-09 0.0
1.15925e-08 -3.20605e-09 0.0
7.75726e-09 -7.2109e-09 0.0
3.55142e-09 -5.07844e-09 0.0
6.99886e-09 -4.08745e-09 0.0
2.50964e-09 -7.81303e-09 0.0
5.53156e-09 -6.22804e-09 0.0
5.20688e-09 -9.28935e-09 0.0
9.2227e-11 -6.35728e-09 0.0
7.7563e-09 -6.90446e-09 0.0
1.20898e-09 -3.33233e-09 0.0
7.4607e-09 -2.85872e-09 0.0
2.11677e-09 1.3015e-09 0.0
2.86677e-09 -3.23131e-09 0.0
-8.54785e-10 1.14979e-09 0.0
1.12906e-08 2.87536e-08 0.0
8.58167e-09 2.67202e-08 0.0
1.60226e-08 3.30008e-08 0.0
2.73666e-08 5.82203e-08 0.0
1.03943e-08 8.76113e-09 0.0
3.87542e-09 1.49062e-08 0.0
1.41197e-08 -5.12578e-09 0.0
3.45866e-08 3.29103e-08 0.0
1.91011e-08 -1.72234e-08 0.0
1.43803e-08 -9.70958e-09 0.0
1.56588e-08 -1.28966e-08 0.0
1.94072e-08 -9.22884e-09 0.0
2.48782e-08 -1.92431e-08 0.0
1.42544e-08 -1.59169e-08 0.0
2.54289e-08 -1.87895e-08 0.0
2.37571e-08 -1.87504e-08 0.0
2.17088e-08 -1.23013e-08 0.0
1.51424e-08 -1.01089e-08 0.0
1.74458e-08 -9.09795e-09 0.0
1.62984e-08 -9.30371e-09 0.0
1.92028e-08 -1.04438e-08 0.0
1.73093e-08 -1.09393e-08 0.0
2.51886e-08 -1.26914e-08 0.0
1.54292e-08 -7.41603e-09 0.0
7.37753e-09 -3.11156e-09 0.0
1.24434e-08 -4.33226e-09 0.0
6.3389e-09 -6.49739e-09 0.0
6.58002e-09 -4.11187e-09 0.0
5.77737e-09 -3.8289e-09 0.0
1.11811e-09 -3.32912e-09 0.0
1.79213e-10 -1.39371e-09 0.0
2.14383e-09 -3.47863e-09 0.0
7.56289e-10 -1.41397e-09 0.0
-9.47005e-10 -2.30482e-09 0.0
-2.33684e-10 -4.29621e-09 0.0
-2.05934e-09 -3.40749e-09 0.0
-2.19471e-09 -3.17632e-09 0.0
-2.01658e-09 -1.53207e-09 0.0
-2.15819e-09 -1.77245e-09 0.0
-6.80498e-09 3.16842e-09 0.0
-5.46722e-09 6.45518e-09 0.0
-9.4458e-09 5.56238e-09 0.0
-8.87567e-09 5.41651e-09 0.0
-5.3151e-10 -1.26386e-09 0.0
7.0471e-09 3.90056e-08 0.0
-1.64637e-09 -1.59181e-09 0.0
3.02112e-08 2.98736e-08 0.0
2.30392e-08 3.28496e-08 0.0
1.23668e-08 -4.86603e-09 0.0
6.4567e-09 -1.64436e-09 0.0
3.36846e-09 -1.81753e-09 0.0
1.73385e-08 -1.03093e-08 0.0
4.56527e-09 -3.47862e-09 0.0
9.47232e-09 -2.97412e-09 0.0
5.8123e-09 -6.95098e-09 0.0
1.24085e-08 -1.52775e-08 0.0
2.35806e-09 -3.7608e-09 0.0
8.1151e-09 -7.02677e-09 0.0
3.14105e-09 -3.51537e-09 0.0
7.27464e-09 -4.53202e-09 0.0
3.48556e-09 -2.21055e-09 0.0
8.82873e-09 -6.01463e-09 0.0
1.48663e-09 -8.03025e-10 0.0
1.11622e-08 -7.51642e-09 0.0
2.37788e-09 -2.37403e-09 0.0
2.90872e-09 -1.81514e-09 0.0
2.49919e-09 -1.92201e-09 0.0
4.5457e-09 -2.08202e-09 0.0
1.7421e-09 -1.083e-09 0.0
1.96587e-09 -2.34035e-09 0.0
VECTORS omega float
-0.0214838 -0.146477 0.0403109
0.0527067 0.0932625 -0.0273055
-0.00645478 -0.0380352 -0.00637309
-0.0159873 -0.0958938 -0.0027023
0.0020106 0.123199 0.0260759
0.0426269 0.0962765 0.0311413
-0.00392494 -0.118536 0.0119576
-0.10265 -0.0142988 0.0193498
0.0824456 0.0184858 0.0225492
0.00205137 0.124059 0.00480221
0.00149809 -0.118867 0.0150502
-0.0487237 0.0509739 0.00654112
0.0688835 -0.0574178 0.0498911
-0.00612397 0.123624 0.016252
-0.00302469 -0.10952 0.0135949
0.030088 -0.016827 0.10088
0.00537828 0.126829 -0.0279834
0.0017089 -0.0428052 -0.017909
0.044769 -0.118854 0.100041
-0.00407098 0.0400701 0.00767635
0.0275936 -0.0198623 0.0437907
-0.0223753 0.02087 0.0234502
0.00056946 -0.0485585 0.0172892
-0.00448993 0.042068 0.0246308
0.0304827 -0.0203994 0.0154954
-0.00374923 -0.0459737 0.0105495
-0.000869527 0.0230788 -0.00169232
-0.00723624 0.0545708 0.0307428
-0.0109453 -0.0301357 0.0656398
0.0115119 -0.0417179 -0.0100152
-0.0412192 -0.103531 0.0312772
0.00192212 0.042231 0.0285473
-0.112377 0.0955107 0.118679
0.12306 -0.0405257 -0.0420635
0.0516843 -0.0216066 0.110172
-0.00735125 0.0432427 0.00439904
-0.0027323 -0.0445715 0.00544089
0.0561285 -0.104349 0.182227
-0.0295261 0.0163531 0.120614
0.00160196 0.0464518 -0.00221414
-0.0773954 0.642885 0.0610759
-0.219888 -0.148887 0.00185595
0.0742757 0.0927407 0.0391655
-0.0685171 -0.0423647 0.0413122
-0.0457185 -0.107187 0.00947045
0.0594297 0.0466995 0.0115727
-0.0834873 0.0743765 0.0693519
0.0747901 -0.033071 0.00457045
0.0159739 -0.0619318 0.104871
-0.0490699 0.0308839 0.0243037
0.0784758 -0.013548 -0.0205435
-0.0468941 0.0338486 0.0499974
-0.0670667 0.00690935 0.0337188
0.0650327 -0.0316429 -0.0129113
-0.0793637 0.0486211 0.0164834
0.0587496 0.0651146 0.0310486
-0.0273367 -0.072546 -0.000203267
-0.00876855 0.0199149 0.00407729
-0.0508773 0.0868432 -0.02784
0.0367608 -0.0160301 0.011273
-0.00294106 -0.0794822 0.0212307
-0.031805 0.0180721 -0.00108926
-0.011144 0.0834461 0.0315114
0.0509302 -0.0169108 0.00372897
0.00677899 -0.0936025 0.0559525
0.0143174 0.0184402 -0.00353023
0.00110746 -0.0450991 0.0850596
-0.011272 -0.00222738 0.0127756
0.0184011 -0.00332595 0.0531299
-0.014062 0.00319113 0.0173574
-0.0135794 0.00504646 -0.00762569
0.00777057 -0.00641519 0.0508908
-0.000571791 -0.00365009 0.0723886
-0.00593668 0.00765525 -0.0512648
0.0809952 -0.140136 0.0142023
-0.0176502 -0.0177806 -0.0172036
-0.0468507 0.122418 0.00263207
0.0795613 -0.105676 -0.00238053
0.0365708 -0.129783 -0.00307799
-0.0436317 0.0982072 0.00794934
-0.0639079 0.133436 -0.0732296
-0.171706 0.00272114 -0.00269266
0.215739 0.0311632 0.0645652
0.185243 0.0129982 0.0652477
-0.144518 -0.0498269 0.00378282
-0.087324 -0.109718 -0.00402378
-0.0605073 -0.259476 0.107263
0.0500934 0.11093 0.0327892
-0.0294124 -0.0862145 0.0697727
0.09873 -0.0538953 0.00183757
-0.0296167 0.0602478 0.0133402
-0.0141519 0.0468131 0.00370663