# vtk DataFile Version 2.0
Generated by lpp.py
ASCII
DATASET POLYDATA
POINTS 400 float
0.00132585 0.000443838 3.36586e-05
0.000910887 0.00128568 -1.66342e-05
0.000242898 0.000443225 -3.64628e-05
0.00183371 0.00127822 5.09221e-06
0.00226775 0.000435728 -1.24497e-05
0.00273998 0.00128781 4.63423e-05
0.00324672 0.00051583 4.67087e-05
0.00374404 0.00129163 -1.5404e-05
0.00460541 0.00119554 -2.0603e-05
0.0041731 0.000417319 3.04549e-05
0.00511642 0.000469741 4.04467e-05
0.00566945 0.00130823 -2.65834e-05
0.00664135 0.00128935 -2.02466e-06
0.00602206 0.000418733 -1.20537e-05
0.00693168 0.000445157 3.91278e-05
0.00824382 0.00117612 -1.82355e-06
0.00779489 0.000364502 3.24564e-05
0.0087669 0.000398277 -3.28708e-05
0.00930271 0.00138523 3.24568e-05
0.00975758 0.000490905 -2.76781e-05
0.0103866 0.00131183 -4.92787e-05
0.0113783 0.00139189 -4.32784e-06
0.0107653 0.000443854 -3.96086e-06
0.0117801 0.000485417 -1.32742e-05
0.0124063 0.00132935 1.95463e-05
0.0127814 0.000442534 1.3181e-05
0.013434 0.00122595 3.75182e-05
0.013614 0.000329763 1.89547e-05
0.0143525 0.00161953 1.99029e-05
0.0143649 0.0007271 -4.71808e-05
0.0156471 0.0012854 1.72248e-05
0.0152277 0.000426738 3.7231e-06
0.0165495 0.00131618 3.54547e-05
0.016158 0.000503506 -4.85386e-05
0.0177949 0.00133113 -3.92382e-05
0.0171612 0.000538401 -3.8784e-05
0.0182412 0.000486049 3.096e-05
0.0199968 0.00131656 4.93031e-05
0.0189188 0.00128032 6.72355e-06
0.0192497 0.000430651 -3.72737e-05
0.000906897 0.00230666 5.14548e-06
0.000381654 0.00315846 -4.9345e-05
0.00206573 0.00294711 -3.17454e-05
0.00232228 0.00211972 -1.41959e-06
0.00292327 0.00285057 3.50109e-05
0.00325508 0.00201936 -3.46654e-05
0.00386401 0.00297752 -3.02218e-05
0.0041274 0.00209057 3.70504e-05
0.00498135 0.00300186 3.07542e-05
0.00497486 0.00196061 -2.23732e-05
0.00564333 0.00243823 -2.11247e-06
0.00623398 0.00307371 -3.67063e-05
0.00642182 0.00213331 3.11799e-05
0.00698807 0.0027101 -2.75116e-05
0.00731569 0.00191105 4.80419e-05
0.00772445 0.00291317 1.77683e-05
0.00828434 0.00219903 -3.97226e-05
0.00876236 0.00311924 4.55657e-05
0.00924523 0.00230697 1.80717e-05
0.00980166 0.0031283 -3.93388e-05
0.0101339 0.00222352 2.40231e-05
0.0107357 0.00309825 2.716e-05
0.0110942 0.00228182 -4.78087e-05
0.0116567 0.00309655 -4.25165e-05
0.0120572 0.00222659 -4.01526e-05
0.0126239 0.00312572 2.94528e-05
0.0131053 0.00222984 4.21294e-05
0.0136515 0.00314428 2.4953e-06
0.0141651 0.00242041 2.35941e-05
0.0146284 0.00314185 -2.89305e-05
0.0150794 0.00224385 3.21045e-05
0.0156135 0.00308825 2.08022e-05
0.0160034 0.00209199 1.69816e-05
0.0165011 0.00284397 -1.31875e-05
0.0169254 0.00207843 -2.13541e-05
0.0173553 0.00302238 -2.48084e-05
0.0178615 0.00224463 7.17441e-06
0.0184409 0.00302937 -3.11061e-05
0.0188592 0.00220927 -6.697e-06
0.019431 0.0030391 1.88296e-05
0.0198497 0.00217766 2.40593e-05
0.00131631 0.00346613 4.11056e-07
0.0015399 0.0043802 -3.43082e-05
0.000516784 0.00405477 4.11872e-05
0.000790646 0.00499944 1.15215e-05
0.00225165 0.0038332 4.14547e-05
0.00262484 0.00468349 2.79416e-05
0.00313533 0.00368814 -1.57031e-06
0.00359695 0.00470005 5.32063e-06
0.00401739 0.00391642 -2.6529e-06
0.00458289 0.00494688 -3.58607e-05
0.00499372 0.00397209 -2.13321e-05
0.00565906 0.00479158 -4.97251e-05
0.00596948 0.00390429 -2.41619e-05
0.00667295 0.00459885 -2.57589e-05
0.00701824 0.0036564 -4.22335e-05
0.00774234 0.00462616 4.30556e-05
0.0079559 0.00368281 4.42331e-05
0.00877252 0.00406048 -4.39636e-05
0.00979561 0.00487149 4.93343e-05
0.00960461 0.00400136 4.05756e-05
0.00870437 0.00490766 -1.72291e-05
0.0104194 0.00387959 -3.72271e-05
0.0107661 0.00467019 4.50596e-05
0.0112785 0.00394294 1.35023e-05
0.011932 0.00475622 3.81834e-05
0.0121382 0.00389418 3.14585e-06
0.0129015 0.00492923 -2.4127e-05
0.0131276 0.00399539 1.0814e-05
0.0137617 0.00483791 -4.51984e-05
0.0141838 0.00402784 1.00341e-06
0.0147062 0.00489078 6.87793e-06
0.0151525 0.00395835 1.87838e-05
0.016078 0.00415527 4.33922e-05
0.0167755 0.00468948 2.18197e-05
0.0170272 0.00386836 -2.12721e-05
0.017659 0.00460877 6.56493e-06
0.0179597 0.00377763 9.36883e-06
0.018694 0.00453875 3.03201e-05
0.019406 0.00392546 1.43967e-05
0.0197493 0.00478929 -2.66714e-05
0.0011944 0.00595041 1.46596e-05
0.000321514 0.00650299 -3.99128e-05
8.34011e-05 0.0057161 -3.26099e-05
0.00181107 0.00521797 -7.07934e-06
0.00212982 0.00645917 -2.06108e-05
0.00262804 0.0056328 3.54227e-05
0.00312553 0.00641117 -2.96496e-05
0.00358132 0.00562858 1.90715e-05
0.00444087 0.00591229 1.72497e-05
0.00535463 0.0057612 2.50127e-05
0.00594854 0.00650216 -4.27825e-05
0.00629027 0.00553438 2.43943e-05
0.00679209 0.00637458 -3.07296e-05
0.00720092 0.00549541 -2.4969e-05
0.00769977 0.00633557 1.47771e-05
0.00817396 0.00555988 -2.62417e-05
0.00863497 0.00633164 -3.20614e-05
0.00925351 0.00565997 -4.70071e-05
0.0101122 0.00574882 4.476e-05
0.0109264 0.00555265 -5.06646e-06
0.0113818 0.0065114 -4.22073e-05
0.0117542 0.00566666 2.60985e-05
0.0123324 0.0064049 1.83575e-05
0.0125173 0.00559824 -2.28987e-05
0.0132134 0.00609344 2.90979e-05
0.0141535 0.00577171 4.28851e-05
0.0151764 0.00589382 -1.46308e-05
0.0156766 0.00502193 -7.56683e-06
0.0160539 0.00623934 -4.83823e-05
0.0165141 0.00551952 2.89194e-05
0.0169856 0.0063227 3.21564e-05
0.0173164 0.00537652 -4.85919e-05
0.018074 0.00628245 -1.12464e-05
0.0181408 0.00535585 3.12852e-05
0.0192893 0.00636025 2.46256e-05
0.0190561 0.00549101 -4.44854e-05
0.00126674 0.00681423 -2.73404e-05
0.00114347 0.00795918 -3.38667e-05
0.00060236 0.00725998 -4.2113e-05
0.000111739 0.00807623 1.49646e-05
0.00190534 0.00742546 7.74856e-06
0.00205753 0.00829867 5.5329e-07
0.00283645 0.00725622 3.67542e-05
0.00293042 0.00819998 1.2865e-05
0.00374888 0.00772301 -4.70278e-05
0.00400037 0.00673774 -1.13161e-05
0.00472358 0.00768247 1.72877e-05
0.00505605 0.00677393 -4.33679e-05
0.00568988 0.00765951 7.98975e-06
0.00646635 0.00722426 -4.89198e-05
0.00704287 0.00808615 -1.8846e-05
0.00736316 0.0071954 -2.80691e-05
0.00792494 0.00787575 -4.34141e-05
0.00824343 0.00712301 2.59556e-05
0.00884542 0.00784717 -3.81694e-05
0.00941667 0.00692332 -2.37608e-06
0.0098351 0.00782789 -1.57412e-05
0.010407 0.00667819 -1.47472e-05
0.010744 0.00823461 4.979e-05
0.0110307 0.00736007 2.22644e-05
0.0117232 0.00820984 -4.55597e-05
0.0120392 0.00730049 -4.5975e-05
0.0128571 0.00785222 4.23607e-05
0.0130213 0.00699279 4.20701e-05
0.0138506 0.00781619 -5.04024e-06
0.013905 0.00679924 1.64328e-05
0.0148539 0.00792237 -1.6913e-05
0.0149085 0.00691197 -4.21217e-05
0.0158223 0.00811099 -3.94419e-05
0.0159162 0.00713294 -1.21974e-05
0.0166842 0.00770136 -3.70828e-05
0.0174891 0.00715065 -3.33274e-05
0.0181561 0.00805599 -3.83096e-05
0.0185055 0.0071749 -2.02095e-05
0.0191774 0.00778185 -4.84051e-05
0.0197572 0.00712987 -3.46879e-05
0.00160074 0.00915017 2.66777e-05
0.000804114 0.00875839 -3.96098e-06
0.00073419 0.00962903 -1.72888e-05
0.00232065 0.0099763 2.41907e-05
0.00258335 0.00906491 4.87165e-05
0.00323168 0.00972715 7.50784e-06
0.0034799 0.0088912 -7.08428e-06
0.00419357 0.00954441 6.12283e-06
0.00435968 0.00858027 1.74262e-06
0.00516928 0.00943784 -2.81666e-05
0.00535551 0.00853109 -1.04316e-05
0.00611633 0.00937721 9.49774e-06
0.00623565 0.00848886 -4.45245e-05
0.00694731 0.00902704 3.54547e-06
0.0074089 0.00987064 -2.7703e-05
0.00779164 0.00871476 -4.92713e-05
0.00820567 0.0095125 1.26179e-05
0.00871094 0.00879011 4.93873e-05
0.00910505 0.00970365 -4.18982e-05
0.00972176 0.00886065 -9.33208e-06
0.0106744 0.00928914 -3.72943e-05
0.0113796 0.00989312 1.32074e-05
0.0116176 0.00907958 3.24679e-05
0.0123036 0.0097602 -1.82378e-05
0.0125558 0.00876098 4.17083e-05
0.0132205 0.009625 2.0062e-05
0.0135571 0.00880454 -3.30909e-05
0.0140426 0.00959921 -4.57402e-05
0.0145466 0.00882793 -3.07794e-05
0.0149192 0.0096704 4.85236e-05
0.0154959 0.00898105 -3.2558e-05
0.015813 0.00994011 -4.73944e-05
0.0164679 0.00883771 -2.5672e-05
0.0167055 0.00969317 -3.5681e-05
0.017323 0.00835102 2.81917e-06
0.0174284 0.00923203 -4.5525e-06
0.0183236 0.00993146 1.70983e-05
0.0199589 0.00908489 -3.41589e-05
0.0183455 0.00898669 -3.29151e-05
0.0191518 0.00955474 4.46827e-05
0.0191514 0.00861113 -3.50995e-05
0.00161387 0.0115948 -2.75196e-05
0.00142818 0.0100977 -3.628e-05
0.00101076 0.0108598 -3.81409e-05
0.000103547 0.0110251 4.26166e-05
0.00192091 0.0107564 2.8646e-05
0.00255958 0.0113923 1.79805e-07
0.00297731 0.0105897 -3.0738e-05
0.00353421 0.011316 1.32908e-05
0.0038733 0.0104449 3.19371e-06
0.00449767 0.0112759 -4.05009e-05
0.00489226 0.0103854 2.58338e-05
0.00543795 0.0112341 5.57899e-06
0.00580969 0.0102252 3.55182e-05
0.0063415 0.0110325 -2.60959e-05
0.00662459 0.0101983 1.90003e-05
0.00727251 0.0108297 2.40728e-05
0.00805527 0.011538 -1.09524e-05
0.00823104 0.0105089 -2.41459e-05
0.00921392 0.0106622 1.14157e-05
0.00900414 0.0115589 -2.28614e-05
0.00997734 0.0100987 7.96265e-06
0.0100618 0.0110614 4.36203e-05
0.0107799 0.0104739 4.40746e-05
0.0109816 0.0113633 4.26806e-05
0.0117257 0.0107234 1.59016e-05
0.0126566 0.0106152 -4.05226e-06
0.0131322 0.0112622 -3.49974e-05
0.0135828 0.0104319 -2.12959e-05
0.0139461 0.0112397 -3.47829e-05
0.0144987 0.0103611 -6.10015e-06
0.0148576 0.0112147 -4.9699e-05
0.015821 0.0110013 -3.49785e-05
0.0165947 0.0105625 -3.04875e-05
0.016636 0.0115683 2.14731e-05
0.0173289 0.0110702 4.23831e-06
0.0174645 0.0102046 1.54215e-05
0.0183043 0.0109068 -4.02054e-05
0.0190888 0.01043 -1.5365e-05
0.0192238 0.01131 -1.60515e-05
0.0199447 0.0101228 -4.17269e-05
0.00139964 0.012654 1.39627e-05
0.000694766 0.0118009 -9.96495e-06
0.000459559 0.0127301 2.195e-05
0.002273 0.0123215 1.50647e-05
0.00295346 0.0130598 -2.83946e-05
0.00319786 0.0121451 2.84116e-05
0.0040515 0.0129441 -8.8818e-06
0.00407699 0.0120338 -1.71454e-05
0.00495292 0.013089 4.3363e-05
0.00505012 0.0121536 3.19528e-05
0.00580194 0.0129021 -3.24457e-07
0.00607224 0.0119612 1.74786e-05
0.00666272 0.0126471 -2.9504e-05
0.00708572 0.0117953 2.61725e-05
0.00757528 0.0127 -7.28073e-06
0.00855965 0.0124189 2.21972e-05
0.00930011 0.0130103 3.4178e-05
0.00982692 0.0119906 -3.43726e-05
0.0101418 0.0129265 2.4284e-05
0.0107642 0.0122967 4.99362e-05
0.0111603 0.0131378 1.79808e-05
0.0119182 0.0117305 3.01021e-05
0.0120772 0.0128006 -4.81269e-05
0.0128276 0.0119909 3.49515e-06
0.0131296 0.012831 8.09002e-06
0.013777 0.0121017 -1.27408e-05
0.0142679 0.0129712 1.51186e-05
0.0147356 0.0121959 -2.52694e-05
0.0154762 0.0127978 -2.24734e-05
0.0155971 0.0118901 -4.84058e-07
0.0163326 0.0124316 2.73575e-05
0.0171472 0.0123297 2.6071e-05
0.0172415 0.0131971 -3.7354e-05
0.0178983 0.0118429 -4.54593e-05
0.0179719 0.0127928 -4.8395e-05
0.0187127 0.0130943 7.82155e-06
0.0188616 0.0121958 -1.47463e-05
0.0195535 0.0129237 -3.72359e-05
0.019799 0.01205 -4.13942e-05
0.00111449 0.0135728 -4.1589e-05
0.000961492 0.0145444 -1.31753e-05
0.000181851 0.0136117 -1.17246e-06
0.00191093 0.0145658 -5.27218e-06
0.00201976 0.0133429 2.70269e-05
0.00267764 0.0140034 -4.69919e-05
0.00308309 0.0148445 2.49655e-05
0.00361601 0.0138004 2.96183e-05
0.00399142 0.0146148 1.43924e-05
0.00460589 0.0139051 -3.62044e-05
0.00522075 0.0145405 2.52958e-05
0.00554753 0.0137736 -4.96651e-05
0.00607714 0.0145265 -1.66336e-06
0.00645756 0.013647 -6.05535e-06
0.00699891 0.0145729 -2.79437e-05
0.00744135 0.0137019 1.57621e-06
0.0080582 0.0145646 -3.93501e-06
0.00839218 0.013447 4.44824e-05
0.00912726 0.0140479 4.05064e-05
0.00977171 0.014725 -8.94147e-06
0.00896231 0.0149822 -1.15952e-07
0.0100909 0.0138497 -3.1985e-05
0.0106122 0.0146528 2.67646e-06
0.0110254 0.0139556 8.79731e-06
0.0114964 0.0146903 -1.90989e-05
0.0118171 0.013757 1.18363e-05
0.0123337 0.0144653 -1.70971e-05
0.0126995 0.0136424 2.04004e-05
0.0132586 0.0143816 -4.99115e-05
0.013651 0.0135851 4.34762e-05
0.0141961 0.0146394 2.36495e-05
0.0144961 0.0138164 1.50053e-05
0.0151426 0.0145936 -1.68329e-05
0.0153779 0.0136949 2.59986e-05
0.0161517 0.0144173 -4.8797e-05
0.0162878 0.0133868 -2.94781e-05
0.0171618 0.0141678 -3.80464e-05
0.0180164 0.0146261 6.36771e-07
0.0180762 0.0136987 -4.54767e-05
0.0199594 0.0145336 -2.39016e-05
0.0189513 0.0145418 -3.38088e-05
0.0192791 0.0137379 6.46138e-06
0.00144913 0.015398 3.1619e-05
0.00104339 0.0162515 -3.75421e-05
0.000526902 0.0153939 1.65265e-05
0.00015501 0.0162431 3.22872e-05
0.00199813 0.0162625 -2.29225e-05
0.00237577 0.0154158 -4.48401e-05
0.00302505 0.0161905 -1.88293e-05
0.00375809 0.0155209 5.22691e-06
0.00400612 0.0163415 -2.84806e-06
0.00465845 0.0152447 3.75063e-05
0.00492814 0.016197 -2.57249e-06
0.00559218 0.0153352 -3.31627e-05
0.00594931 0.016218 4.29286e-05
0.00657277 0.0154127 3.83299e-05
0.00693771 0.0162875 8.05502e-06
0.00749412 0.0153701 -1.60873e-07
0.00781658 0.0162825 4.44584e-05
0.00840735 0.0156745 1.77529e-05
0.00921283 0.0160938 1.78253e-05
0.00995245 0.0155476 1.34032e-05
0.0100391 0.016367 -1.78006e-05
0.0107933 0.0163488 3.69213e-05
0.0109571 0.0154956 -2.36735e-05
0.0116491 0.0162676 -3.81553e-05
0.0120389 0.0154055 -3.46021e-05
0.0126472 0.0162177 4.68532e-05
0.0130664 0.0153168 -4.47667e-06
0.0136395 0.0163156 -3.82493e-05
0.0140219 0.0155213 4.44816e-05
0.0145555 0.016297 2.60965e-05
0.0149379 0.0154789 -1.42244e-05
0.0154739 0.0162595 -2.63927e-05
0.0158735 0.0153997 1.45032e-05
0.0163534 0.0162682 1.42827e-05
0.016895 0.0152249 8.61202e-06
0.0172741 0.0162314 1.04172e-05
0.017807 0.0154404 -1.6534e-05
0.0182782 0.0162461 1.14277e-05
0.0186783 0.0153946 3.47044e-05
0.0192528 0.0162476 4.63278e-05
0.0196072 0.0154169 -1.23126e-05
VERTICES 400 800
1 0
1 1
1 2
1 3
1 4
1 5
1 6
1 7
1 8
1 9
1 10
1 11
1 12
1 13
1 14
1 15
1 16
1 17
1 18
1 19
1 20
1 21
1 22
1 23
1 24
1 25
1 26
1 27
1 28
1 29
1 30
1 31
1 32
1 33
1 34
1 35
1 36
1 37
1 38
1 39
1 40
1 41
1 42
1 43
1 44
1 45
1 46
1 47
1 48
1 49
1 50
1 51
1 52
1 53
1 54
1 55
1 56
1 57
1 58
1 59
1 60
1 61
1 62
1 63
1 64
1 65
1 66
1 67
1 68
1 69
1 70
1 71
1 72
1 73
1 74
1 75
1 76
1 77
1 78
1 79
1 80
1 81
1 82
1 83
1 84
1 85
1 86
1 87
1 88
1 89
1 90
1 91
1 92
1 93
1 94
1 95
1 96
1 97
1 98
1 99
1 100
1 101
1 102
1 103
1 104
1 105
1 106
1 107
1 108
1 109
1 110
1 111
1 112
1 113
1 114
1 115
1 116
1 117
1 118
1 119
1 120
1 121
1 122
1 123
1 124
1 125
1 126
1 127
1 128
1 129
1 130
1 131
1 132
1 133
1 134
1 135
1 136
1 137
1 138
1 139
1 140
1 141
1 142
1 143
1 144
1 145
1 146
1 147
1 148
1 149
1 150
1 151
1 152
1 153
1 154
1 155
1 156
1 157
1 158
1 159
1 160
1 161
1 162
1 163
1 164
1 165
1 166
1 167
1 168
1 169
1 170
1 171
1 172
1 173
1 174
1 175
1 176
1 177
1 178
1 179
1 180
1 181
1 182
1 183
1 184
1 185
1 186
1 187
1 188
1 189
1 190
1 191
1 192
1 193
1 194
1 195
1 196
1 197
1 198
1 199
1 200
1 201
1 202
1 203
1 204
1 205
1 206
1 207
1 208
1 209
1 210
1 211
1 212
1 213
1 214
1 215
1 216
1 217
1 218
1 219
1 220
1 221
1 222
1 223
1 224
1 225
1 226
1 227
1 228
1 229
1 230
1 231
1 232
1 233
1 234
1 235
1 236
1 237
1 238
1 239
1 240
1 241
1 242
1 243
1 244
1 245
1 246
1 247
1 248
1 249
1 250
1 251
1 252
1 253
1 254
1 255
1 256
1 257
1 258
1 259
1 260
1 261
1 262
1 263
1 264
1 265
1 266
1 267
1 268
1 269
1 270
1 271
1 272
1 273
1 274
1 275
1 276
1 277
1 278
1 279
1 280
1 281
1 282
1 283
1 284
1 285
1 286
1 287
1 288
1 289
1 290
1 291
1 292
1 293
1 294
1 295
1 296
1 297
1 298
1 299
1 300
1 301
1 302
1 303
1 304
1 305
1 306
1 307
1 308
1 309
1 310
1 311
1 312
1 313
1 314
1 315
1 316
1 317
1 318
1 319
1 320
1 321
1 322
1 323
1 324
1 325
1 326
1 327
1 328
1 329
1 330
1 331
1 332
1 333
1 334
1 335
1 336
1 337
1 338
1 339
1 340
1 341
1 342
1 343
1 344
1 345
1 346
1 347
1 348
1 349
1 350
1 351
1 352
1 353
1 354
1 355
1 356
1 357
1 358
1 359
1 360
1 361
1 362
1 363
1 364
1 365
1 366
1 367
1 368
1 369
1 370
1 371
1 372
1 373
1 374
1 375
1 376
1 377
1 378
1 379
1 380
1 381
1 382
1 383
1 384
1 385
1 386
1 387
1 388
1 389
1 390
1 391
1 392
1 393
1 394
1 395
1 396
1 397
1 398
1 399
POINT_DATA 400
VECTORS f float
3.47173e-09 1.04851e-09 0.0
1.10061e-08 1.26048e-09 0.0
1.38392e-10 7.3837e-09 0.0
6.50802e-09 8.6573e-10 0.0
4.27221e-09 2.346e-10 0.0
3.55664e-09 9.97727e-10 0.0
2.62588e-09 -1.54637e-09 0.0
1.49247e-09 -2.12915e-09 0.0
1.87772e-09 -3.13844e-09 0.0
6.01758e-10 -1.34709e-09 0.0
1.5505e-09 -2.78958e-09 0.0
2.03637e-09 -5.79863e-09 0.0
2.22254e-10 -1.38517e-09 0.0
5.57769e-10 -1.73982e-09 0.0
8.97894e-10 -6.75261e-10 0.0
5.1661e-10 1.70031e-09 0.0
-6.7032e-11 1.08965e-10 0.0
-4.45477e-10 3.15196e-10 0.0
-2.98027e-09 4.92058e-09 0.0
-1.97161e-09 3.13306e-09 0.0
-2.41653e-09 5.05677e-09 0.0
-8.46599e-10 4.92815e-09 0.0
-8.71879e-10 1.79402e-09 0.0
-1.19094e-10 3.40164e-09 0.0
2.4322e-10 5.50113e-09 0.0
9.13678e-10 3.0629e-09 0.0
1.91461e-09 1.20648e-08 0.0
1.14964e-09 3.09415e-09 0.0
6.27771e-09 1.38169e-08 0.0
3.09043e-09 1.16979e-08 0.0
6.82473e-09 1.15587e-08 0.0
3.44698e-09 8.08719e-09 0.0
8.69449e-09 1.01014e-08 0.0
3.41431e-09 1.07233e-08 0.0
9.56352e-09 1.11197e-08 0.0
4.27467e-09 1.38891e-08 0.0
2.80258e-09 8.81461e-09 0.0
1.25589e-08 1.63139e-08 0.0
9.80773e-09 1.23401e-08 0.0
8.53175e-10 4.8342e-09 0.0
1.66918e-08 3.62858e-09 0.0
1.87159e-08 1.19805e-08 0.0
1.15177e-08 4.00254e-09 0.0
9.28418e-09 3.07421e-09 0.0
9.1045e-09 -1.21487e-09 0.0
7.5388e-09 -2.26891e-09 0.0
1.89066e-08 -8.62904e-09 0.0
6.58878e-09 -4.95222e-09 0.0
7.12743e-09 -1.13758e-09 0.0
4.5508e-09 -6.6012e-09 0.0
1.44467e-09 -2.54492e-09 0.0
1.36186e-09 -9.54409e-11 0.0
2.51653e-09 6.01898e-10 0.0
1.43548e-10 1.74201e-09 0.0
-5.40198e-10 1.1628e-09 0.0
2.85006e-10 2.55643e-09 0.0
-2.64516e-09 3.79114e-09 0.0
-1.98268e-09 5.23817e-09 0.0
-1.16029e-09 4.39799e-09 0.0
-3.19083e-10 9.38508e-09 0.0
-8.40423e-10 6.88418e-09 0.0
-2.53342e-10 6.12406e-09 0.0
8.7789e-10 7.29e-09 0.0
1.98267e-09 1.05489e-08 0.0
1.08349e-09 6.49652e-09 0.0
5.9372e-09 1.382e-08 0.0
3.87406e-09 1.54572e-08 0.0
1.02248e-08 1.42748e-08 0.0
7.3979e-09 1.05582e-08 0.0
1.20635e-08 1.68496e-08 0.0
1.24691e-08 1.78265e-08 0.0
1.83572e-08 2.9258e-08 0.0
8.81112e-09 1.61709e-08 0.0
1.48543e-08 1.91058e-08 0.0
1.46828e-08 1.33427e-08 0.0
1.67584e-08 1.9038e-08 0.0
2.46589e-08 2.52969e-08 0.0
1.88523e-08 2.33045e-08 0.0
2.16496e-08 2.27371e-08 0.0
2.7113e-08 3.0672e-08 0.0
2.46287e-08 2.7588e-08 0.0
2.64767e-08 1.14354e-08 0.0
8.9767e-09 4.33238e-09 0.0
1.24969e-08 6.44186e-09 0.0
1.33166e-08 1.25482e-08 0.0
1.72983e-08 3.64705e-09 0.0
1.12782e-08 2.70775e-09 0.0
1.49727e-08 -4.05334e-09 0.0
7.08019e-09 -1.42998e-08 0.0
1.77606e-08 -9.44089e-09 0.0
1.14199e-08 -1.09845e-08 0.0
1.62274e-08 -5.13505e-09 0.0
1.11841e-08 -4.38049e-09 0.0
5.78413e-09 -7.72677e-10 0.0
7.52347e-09 3.91865e-09 0.0
3.42445e-09 1.85437e-09 0.0
5.03627e-09 9.63297e-09 0.0
8.18983e-10 4.74349e-09 0.0
-2.35312e-09 5.6449e-09 0.0
2.30635e-09 9.17049e-09 0.0
-2.42587e-09 6.35446e-09 0.0
3.69073e-09 4.98853e-09 0.0
-2.43729e-09 5.66656e-09 0.0
-6.97796e-09 8.1929e-09 0.0
-6.38698e-10 5.81125e-09 0.0
5.17476e-09 4.61863e-09 0.0
1.97655e-09 7.13838e-09 0.0
7.58485e-09 7.43991e-09 0.0
1.34516e-08 1.62144e-08 0.0
8.28786e-09 9.11361e-09 0.0
1.12528e-08 1.72796e-08 0.0
1.32291e-08 1.70054e-08 0.0
1.15809e-08 2.27401e-08 0.0
1.2933e-08 2.38299e-08 0.0
9.68342e-09 1.91883e-08 0.0
1.19562e-08 2.2855e-08 0.0
7.75586e-09 1.91909e-08 0.0
1.55296e-08 2.66735e-08 0.0
1.59858e-08 3.81947e-08 0.0
1.15801e-08 1.93438e-08 0.0
1.14742e-08 2.85735e-08 0.0
3.77494e-09 2.67363e-09 0.0
5.52807e-09 7.58215e-09 0.0
1.57614e-08 1.59866e-08 0.0
6.27327e-09 1.52623e-09 0.0
8.6757e-10 -9.07988e-09 0.0
4.77555e-09 -5.58151e-09 0.0
2.52179e-09 -9.37713e-09 0.0
3.64233e-09 -1.87062e-08 0.0
2.39415e-09 -1.01684e-08 0.0
7.94091e-09 -9.29772e-09 0.0
5.2069e-09 -3.16624e-09 0.0
3.4313e-09 1.31841e-09 0.0
9.23164e-09 2.80943e-09 0.0
7.77685e-09 7.39671e-09 0.0
1.02393e-08 7.88157e-09 0.0
6.15286e-09 6.18026e-09 0.0
1.03925e-08 7.15313e-09 0.0
5.68407e-09 7.13152e-09 0.0
3.55913e-09 1.17842e-08 0.0
1.92549e-09 7.39804e-09 0.0
9.38814e-09 -9.07014e-10 0.0
3.76606e-09 -4.23569e-10 0.0
9.38986e-09 -4.19448e-09 0.0
1.53999e-09 -8.18365e-10 0.0
6.36226e-09 -6.70062e-09 0.0
1.04961e-08 1.14287e-08 0.0
1.11531e-08 2.03688e-08 0.0
1.07389e-08 1.94187e-08 0.0
1.05598e-08 1.483e-08 0.0
1.00461e-08 2.29235e-08 0.0
6.65596e-09 2.09517e-08 0.0
6.67633e-09 1.7347e-08 0.0
1.08831e-08 3.03715e-08 0.0
8.47666e-09 2.34722e-08 0.0
-1.82812e-09 1.94957e-08 0.0
6.293e-09 2.50436e-08 0.0
-6.16177e-10 -3.86077e-10 0.0
9.24024e-09 -2.19459e-09 0.0
2.80825e-09 4.17775e-09 0.0
1.29253e-08 8.00313e-09 0.0
3.31153e-09 -7.48274e-09 0.0
7.01364e-09 -7.76946e-09 0.0
3.11544e-09 -1.63892e-08 0.0
7.73998e-09 -1.31723e-08 0.0
7.94701e-09 -1.74408e-08 0.0
3.89793e-09 -1.74739e-08 0.0
5.79181e-09 -1.36587e-08 0.0
8.98497e-09 -1.70208e-08 0.0
6.87741e-09 -1.1558e-08 0.0
7.11026e-09 -1.27619e-09 0.0
2.15544e-08 7.82399e-09 0.0
9.62146e-09 5.03443e-09 0.0
9.43026e-09 3.94491e-09 0.0
1.07089e-08 5.7347e-09 0.0
1.91137e-08 1.54508e-08 0.0
1.10482e-08 1.58911e-08 0.0
1.54571e-08 7.67289e-09 0.0
1.08974e-08 1.69165e-08 0.0
2.85278e-08 -6.43488e-09 0.0
1.34349e-08 -8.7058e-10 0.0
2.47626e-08 -1.04611e-08 0.0
1.97331e-08 -8.40448e-09 0.0
1.81277e-08 -8.28875e-09 0.0
1.31085e-08 -5.0482e-09 0.0
2.9342e-08 -7.49152e-09 0.0
1.85908e-08 1.02066e-09 0.0
2.05178e-08 2.16045e-10 0.0
2.88467e-08 1.38092e-08 0.0
2.03508e-08 3.58007e-09 0.0
2.07398e-08 9.83146e-09 0.0
1.72258e-08 1.68496e-08 0.0
1.88569e-08 3.08523e-08 0.0
1.11194e-08 9.05161e-09 0.0
1.50086e-08 1.90673e-08 0.0
9.41996e-09 8.95094e-09 0.0
5.31506e-09 1.09827e-08 0.0
1.61065e-08 -1.1422e-08 0.0
6.65187e-09 -1.21943e-09 0.0
1.46258e-08 -4.11262e-09 0.0
1.89781e-08 -1.6719e-08 0.0
1.46169e-08 -1.54652e-08 0.0
1.29175e-08 -1.22068e-08 0.0
9.23769e-09 -1.16214e-08 0.0
1.88011e-08 -1.37239e-08 0.0
1.56329e-08 -2.08796e-08 0.0
1.62911e-08 -7.76592e-09 0.0
1.26713e-08 -1.33068e-08 0.0
1.92234e-08 -1.64077e-09 0.0
9.96788e-09 -1.0305e-09 0.0
1.73109e-08 4.45078e-09 0.0
2.85882e-08 1.18225e-08 0.0
1.55913e-08 6.48292e-09 0.0
2.07541e-08 8.53481e-09 0.0
1.98618e-08 9.46642e-09 0.0
2.9076e-08 7.2505e-09 0.0
3.7701e-08 1.13111e-08 0.0
3.69843e-08 -3.75335e-09 0.0
2.5856e-08 -1.0831e-08 0.0
2.22788e-08 -9.43516e-09 0.0
4.24488e-08 -1.96611e-08 0.0
3.50846e-08 -1.72771e-08 0.0
1.51206e-08 -6.82552e-09 0.0
2.7288e-08 -1.08707e-08 0.0
1.56562e-08 -6.24267e-09 0.0
2.59746e-08 -5.45238e-09 0.0
1.71365e-08 -3.94268e-09 0.0
2.06861e-08 -2.11994e-09 0.0
2.48434e-08 -4.75569e-09 0.0
1.96633e-08 -7.1648e-10 0.0
1.30337e-08 -2.51576e-10 0.0
1.02617e-08 9.2255e-09 0.0
1.75059e-08 5.34182e-09 0.0
1.47359e-08 5.89363e-10 0.0
1.77385e-08 2.56617e-09 0.0
1.49085e-08 5.83747e-09 0.0
1.40073e-08 1.15994e-09 0.0
9.18961e-09 4.05744e-09 0.0
1.41276e-08 -1.81903e-08 0.0
1.30406e-08 -9.26299e-09 0.0
1.22821e-08 -1.23702e-08 0.0
1.01634e-08 -7.77296e-09 0.0
1.06083e-08 -1.07688e-08 0.0
1.82291e-08 -2.09374e-08 0.0
1.38699e-08 -1.20005e-08 0.0
1.50057e-08 -1.16265e-08 0.0
2.76311e-08 -1.72603e-08 0.0
2.0264e-08 -7.4065e-09 0.0
3.40635e-08 -1.1398e-08 0.0
2.0593e-08 6.37591e-10 0.0
2.09694e-08 -3.99956e-10 0.0
2.53507e-08 7.77956e-09 0.0
1.83426e-08 6.12191e-09 0.0
2.89068e-08 1.16964e-08 0.0
3.43813e-08 3.36531e-09 0.0
4.06333e-08 1.27605e-08 0.0
3.72014e-08 3.83047e-09 0.0
3.70563e-08 2.56602e-09 0.0
2.71172e-08 -5.87758e-09 0.0
4.12522e-08 -8.11762e-09 0.0
2.79112e-08 -1.17167e-08 0.0
4.33717e-08 -1.99313e-08 0.0
3.99992e-08 -1.89489e-08 0.0
2.26955e-08 -1.07641e-08 0.0
1.75976e-08 -6.9762e-09 0.0
3.1298e-08 -1.32811e-08 0.0
1.33228e-08 -5.53971e-09 0.0
1.71537e-08 -6.828e-09 0.0
2.4144e-08 -1.10225e-08 0.0
1.7939e-08 -6.46596e-09 0.0
1.70911e-08 -2.71243e-09 0.0
1.29311e-08 -4.97475e-09 0.0
9.0245e-09 -1.71645e-09 0.0
1.86066e-08 1.13634e-09 0.0
1.33009e-08 -5.28958e-09 0.0
1.02101e-08 -1.90892e-09 0.0
1.03881e-08 -6.87954e-09 0.0
1.33542e-08 -2.32014e-09 0.0
5.70849e-09 -1.82006e-08 0.0
1.32229e-08 -1.82132e-08 0.0
7.05451e-09 -1.48164e-08 0.0
1.11068e-08 -2.01046e-08 0.0
6.59974e-09 -2.00064e-08 0.0
1.20439e-08 -1.4043e-08 0.0
1.16062e-08 -1.00769e-08 0.0
1.3708e-08 -7.84011e-09 0.0
7.33533e-09 1.26682e-09 0.0
2.58076e-08 -4.47397e-10 0.0
1.97156e-08 1.02371e-08 0.0
2.71896e-08 9.87395e-09 0.0
1.76219e-08 1.10438e-08 0.0
3.57806e-08 1.67182e-08 0.0
4.47699e-08 9.04607e-09 0.0
3.55841e-08 -3.23584e-09 0.0
3.54077e-08 -3.64588e-08 0.0
4.40345e-08 9.22573e-10 0.0
1.94218e-08 -2.35081e-08 0.0
7.09011e-08 -1.86456e-08 0.0
1.90759e-08 -1.77951e-08 0.0
4.57067e-08 -2.08218e-08 0.0
3.26808e-08 -1.41763e-08 0.0
1.97564e-08 -7.17088e-09 0.0
2.22404e-08 -8.54342e-09 0.0
2.59042e-08 -9.38317e-09 0.0
1.31614e-08 -6.38985e-09 0.0
2.00289e-08 -9.6289e-09 0.0
8.52411e-09 -6.88914e-09 0.0
1.61808e-08 -8.06202e-09 0.0
1.16886e-08 -5.86316e-09 0.0
6.21631e-09 -3.04409e-09 0.0
6.00477e-09 -5.81872e-09 0.0
1.42317e-08 -1.01391e-08 0.0
4.9308e-09 -5.1295e-09 0.0
3.93298e-09 -5.92999e-09 0.0
9.93713e-09 -1.26219e-08 0.0
6.52733e-09 -1.30134e-08 0.0
7.17079e-09 -1.06008e-08 0.0
3.12345e-09 -1.84146e-08 0.0
-1.68915e-09 -1.23789e-08 0.0
3.08814e-09 -1.19969e-08 0.0
-4.34833e-09 -1.34565e-08 0.0
2.04701e-09 -1.33588e-08 0.0
-2.02692e-09 -1.54569e-08 0.0
-7.24877e-09 -9.53393e-09 0.0
-4.20942e-10 -1.06544e-08 0.0
-5.72739e-09 -4.27664e-09 0.0
-2.24631e-09 1.47473e-10 0.0
-4.11259e-09 4.85574e-09 0.0
-7.02707e-09 3.08305e-09 0.0
-6.89796e-09 7.40313e-09 0.0
-8.60979e-09 4.09215e-08 0.0
1.05184e-08 2.51538e-08 0.0
-2.14836e-08 9.70222e-09 0.0
-3.63267e-08 5.32657e-08 0.0
-3.36207e-08 -2.06598e-08 0.0
-5.05742e-08 1.25549e-08 0.0
-1.72827e-08 -1.00772e-08 0.0
-5.51417e-11 4.14975e-08 0.0
-5.70597e-08 -3.47564e-08 0.0
-1.47638e-08 -1.58739e-08 0.0
-1.11841e-08 -1.88273e-08 0.0
-1.47744e-08 -2.05991e-08 0.0
1.09081e-09 -9.38969e-09 0.0
-1.58559e-09 -2.2989e-09 0.0
5.61822e-09 -5.40821e-09 0.0
3.39518e-09 -8.06527e-09 0.0
8.04262e-09 -4.97373e-09 0.0
3.57188e-09 -5.94957e-09 0.0
6.28161e-09 -4.47508e-09 0.0
4.54011e-09 -6.21244e-09 0.0
7.29782e-09 -6.91005e-09 0.0
4.93674e-09 -8.22264e-09 0.0
1.02318e-08 -8.71572e-09 0.0
4.90627e-09 -7.81792e-09 0.0
1.51136e-09 -5.46314e-09 0.0
5.11021e-09 -7.31621e-09 0.0
-1.014e-09 -1.72832e-08 0.0
-8.8422e-11 -1.1303e-08 0.0
1.70504e-09 -9.86188e-09 0.0
-2.65841e-09 -6.69892e-09 0.0
-1.5449e-09 -2.82049e-09 0.0
-2.3634e-09 -9.61453e-09 0.0
-8.8824e-10 -3.95629e-09 0.0
-3.57074e-09 -3.65235e-09 0.0
-5.47713e-09 -7.52643e-09 0.0
-5.91028e-09 -5.25211e-09 0.0
-7.83824e-09 -4.07954e-09 0.0
-3.81323e-09 -1.90748e-09 0.0
-9.58344e-09 3.78184e-10 0.0
-1.00596e-08 3.04297e-09 0.0
-9.61694e-09 8.84731e-09 0.0
-1.03183e-08 5.95881e-09 0.0
-4.79497e-09 7.48086e-09 0.0
-3.59362e-09 2.609e-09 0.0
1.19538e-08 7.36005e-08 0.0
-8.53813e-09 2.85005e-09 0.0
1.69693e-08 4.52084e-08 0.0
9.16561e-09 4.85557e-08 0.0
-1.49322e-08 -4.90801e-09 0.0
1.39673e-09 -8.04773e-10 0.0
-1.17613e-09 -4.1287e-09 0.0
-1.56855e-08 -2.11518e-08 0.0
-3.12312e-09 -9.60006e-09 0.0
-5.34114e-09 -1.2213e-08 0.0
-2.02717e-09 -8.95165e-09 0.0
1.88473e-09 -8.54554e-09 0.0
-2.74976e-10 -2.37314e-09 0.0
1.20025e-09 -4.12081e-09 0.0
2.23429e-10 -2.23708e-09 0.0
1.40485e-09 -3.05149e-09 0.0
4.84732e-10 -1.86835e-09 0.0
1.69542e-09 -4.81582e-09 0.0
3.4918e-13 -7.3973e-10 0.0
2.13632e-09 -6.82383e-09 0.0
-1.26462e-10 -2.37482e-09 0.0
4.49897e-10 -2.50756e-09 0.0
1.64302e-10 -3.91669e-09 0.0
8.05224e-10 -5.84338e-09 0.0
-2.9736e-11 -3.49625e-09 0.0
-1.08716e-09 -6.33399e-09 0.0
VECTORS omega float
-0.0223076 -0.0975426 0.0351703
0.0512075 0.0587253 -0.0286831
-0.00707021 -0.0272078 -0.00677054
-0.00990657 -0.06112 -1.51433e-05
0.00133591 0.0795041 0.0208066
0.0281083 0.0614635 0.0265961
-0.00221024 -0.0756299 0.00950456
-0.0661759 -0.00827453 0.0196226
0.0531557 0.0107596 0.0177697
0.000934939 0.0781512 0.00532931
0.00024963 -0.073398 0.0126183
-0.0294175 0.0326417 0.00438769
0.0433483 -0.0366945 0.0447247
-0.00415969 0.0750266 0.0150445
-0.00208455 -0.0652935 0.0107307
0.0151602 -0.0105184 0.0875519
0.00402253 0.0746548 -0.0224207
0.0011424 -0.0212572 -0.0143112
0.0573684 -0.128121 0.0838306
-0.00284303 0.0206209 0.00738595
0.0153063 -0.0120749 0.0379205
-0.010014 0.0129354 0.0203445
0.000591687 -0.0265806 0.0152025
-0.00406857 0.0236574 0.0218963
0.0195463 -0.0131398 0.0133657
-0.0029121 -0.0265788 0.00953271
0.00330583 0.0158999 -0.00182713
-0.00723472 0.0332768 0.0280944
-0.00606628 -0.0201957 0.0583254
0.00548374 -0.0290396 -0.00988693
-0.0663538 -0.137996 0.028277
0.00254125 0.0306621 0.0277851
-0.126157 0.128822 0.104681
0.15665 -0.0254766 -0.0389822
0.0438837 -0.0172239 0.0968846
-0.00722753 0.0317357 0.00357979
-0.00322325 -0.0331377 0.0046832
0.0434582 -0.0671736 0.152725
-0.0224092 0.0110265 0.104081
0.00155087 0.0338773 -0.00108436
-0.0763392 0.598928 0.062748
-0.193884 -0.145022 -0.00363855
0.0503685 0.0614842 0.033878
-0.0453301 -0.0272402 0.0354718
-0.0298514 -0.0717404 0.00807245
0.0379966 0.0299654 0.0126558
-0.0573138 0.050428 0.0610501
0.0498468 -0.0204326 -0.00131413
-0.00362235 -0.0824721 0.0860345
-0.0339643 0.0194582 0.0236664
0.0905321 0.0167915 -0.0149731
-0.0251266 0.044536 0.0380388
-0.032344 -0.0388934 0.0278697
-0.015977 -0.0217697 -0.0103847
-0.0150695 0.063419 0.0128169
0.0543671 0.0339089 0.0251409
-0.0137594 -0.0632494 -0.000904123
-0.00592157 0.0373142 0.00249488
-0.0621746 0.0757666 -0.0240323
0.0303599 -0.0294758 0.00958173
0.00502679 -0.0684439 0.0180484
-0.0245373 0.0307388 -0.00199561
-0.0181579 0.071767 0.0276468
0.0440335 -0.0259355 0.00278535
0.0111432 -0.0802392 0.0489101
0.0122936 0.0247579 -0.0032078
-0.00472299 -0.0335731 0.074239
-0.00548354 -0.00928277 0.0115384
0.0104437 0.00501292 0.0451093
-0.00091942 0.00822671 0.0161268
-0.0189983 -0.00172468 -0.00471649
0.00879839 -0.0104182 0.0423355
0.0135909 0.00215228 0.0587586
-0.0125417 0.0142598 -0.0422465
0.0976649 -0.163426 0.0135343
-0.0332232 -0.0302128 -0.0157137
-0.0394596 0.145187 0.0017933
0.0928596 -0.10247 -0.00163881
0.0319343 -0.153209 -0.00204953
-0.0536701 0.0960671 0.00788688
-0.0630725 0.157724 -0.054861
-0.138569 0.017706 0.000418209
0.180784 0.0340786 0.0573216
0.154899 -0.0107558 0.0573937
-0.124634 -0.045954 0.00328909
-0.0670381 -0.102937 -0.002032
-0.0530433 -0.199605 0.0924188
0.0413231 0.101151 0.0291638
-0.0159766 -0.0473331 0.059715