# vtk DataFile Version 2.0
Generated by lpp.py
ASCII
DATASET POLYDATA
POINTS 400 float
0.00132552 0.000443788 3.36586e-05
0.000910373 0.00128584 -1.66342e-05
0.000242926 0.000443177 -3.64628e-05
0.00183325 0.00127812 5.09221e-06
0.00226752 0.000435713 -1.24497e-05
0.00273956 0.00128778 4.63423e-05
0.00324652 0.00051587 4.67087e-05
0.00374366 0.0012917 -1.5404e-05
0.00460508 0.00119557 -2.0603e-05
0.00417297 0.00041733 3.04549e-05
0.00511625 0.000469759 4.04467e-05
0.00566908 0.00130826 -2.65834e-05
0.00664093 0.00128943 -2.02466e-06
0.00602192 0.000418774 -1.20537e-05
0.00693158 0.000445231 3.91278e-05
0.00824342 0.00117615 -1.82355e-06
0.00779489 0.000364465 3.24564e-05
0.00876691 0.000398385 -3.28708e-05
0.00930214 0.00138511 3.24568e-05
0.00975748 0.000490908 -2.76781e-05
0.0103861 0.00131176 -4.92787e-05
0.0113779 0.00139191 -4.32784e-06
0.0107652 0.000443833 -3.96086e-06
0.01178 0.000485448 -1.32742e-05
0.0124059 0.00132947 1.95463e-05
0.0127812 0.000442586 1.3181e-05
0.0134337 0.00122599 3.75182e-05
0.0136138 0.000329814 1.89547e-05
0.014352 0.00161963 1.99029e-05
0.0143647 0.000727153 -4.71808e-05
0.0156466 0.00128546 1.72248e-05
0.0152276 0.000426775 3.7231e-06
0.016549 0.00131606 3.54547e-05
0.0161578 0.000503535 -4.85386e-05
0.0177943 0.00133111 -3.92382e-05
0.0171611 0.000538321 -3.8784e-05
0.0182411 0.00048606 3.096e-05
0.0199962 0.00131624 4.93031e-05
0.0189183 0.00128032 6.72355e-06
0.0192497 0.000430704 -3.72737e-05
0.000906098 0.00230685 5.14548e-06
0.000380489 0.00315823 -4.9345e-05
0.0020646 0.00294695 -3.17454e-05
0.00232155 0.00211961 -1.41959e-06
0.00292225 0.0028505 3.50109e-05
0.00325438 0.0020194 -3.46654e-05
0.00386294 0.00297753 -3.02218e-05
0.00412675 0.00209061 3.70504e-05
0.00498024 0.00300169 3.07542e-05
0.00497425 0.00196067 -2.23732e-05
0.00564254 0.00243826 -2.11247e-06
0.00623294 0.00307375 -3.67063e-05
0.006421 0.00213334 3.11799e-05
0.00698713 0.00271021 -2.75116e-05
0.0073149 0.00191125 4.80419e-05
0.00772343 0.00291325 1.77683e-05
0.00828345 0.00219914 -3.97226e-05
0.00876137 0.00311937 4.55657e-05
0.0092443 0.00230694 1.80717e-05
0.00980054 0.00312832 -3.93388e-05
0.010133 0.00222343 2.40231e-05
0.0107347 0.00309822 2.716e-05
0.0110933 0.00228175 -4.78087e-05
0.0116555 0.00309651 -4.25165e-05
0.0120564 0.00222669 -4.01526e-05
0.0126227 0.00312552 2.94528e-05
0.0131045 0.00222976 4.21294e-05
0.0136503 0.00314422 2.4953e-06
0.0141641 0.00242041 2.35941e-05
0.0146271 0.00314193 -2.89305e-05
0.0150785 0.00224405 3.21045e-05
0.0156123 0.00308859 2.08022e-05
0.0160025 0.0020923 1.69816e-05
0.0165 0.00284427 -1.31875e-05
0.0169243 0.00207854 -2.13541e-05
0.0173543 0.00302235 -2.48084e-05
0.0178604 0.00224463 7.17441e-06
0.0184398 0.00302936 -3.11061e-05
0.0188581 0.00220922 -6.697e-06
0.01943 0.00303897 1.88296e-05
0.0198485 0.00217729 2.40593e-05
0.00131504 0.00346597 4.11056e-07
0.00153831 0.00438009 -3.43082e-05
0.000515275 0.00405449 4.11872e-05
0.000788789 0.00499924 1.15215e-05
0.0022503 0.00383312 4.14547e-05
0.00262305 0.00468356 2.79416e-05
0.00313399 0.0036881 -1.57031e-06
0.00359512 0.00469989 5.32063e-06
0.0040159 0.00391643 -2.6529e-06
0.00458101 0.00494684 -3.58607e-05
0.00499211 0.00397202 -2.13321e-05
0.00565725 0.00479158 -4.97251e-05
0.00596797 0.00390431 -2.41619e-05
0.00667127 0.00459886 -2.57589e-05
0.00701688 0.00365649 -4.22335e-05
0.0077407 0.00462623 4.30556e-05
0.00795466 0.0036829 4.42331e-05
0.00877127 0.00406071 -4.39636e-05
0.00979418 0.00487196 4.93343e-05
0.00960352 0.00400158 4.05756e-05
0.00870263 0.00490791 -1.72291e-05
0.0104183 0.00387954 -3.72271e-05
0.0107639 0.00467032 4.50596e-05
0.0112773 0.00394317 1.35023e-05
0.0119303 0.00475578 3.81834e-05
0.0121369 0.00389395 3.14585e-06
0.0128996 0.00492902 -2.4127e-05
0.0131262 0.00399522 1.0814e-05
0.01376 0.00483784 -4.51984e-05
0.0141823 0.00402784 1.00341e-06
0.0147044 0.0048908 6.87793e-06
0.015151 0.00395852 1.87838e-05
0.0160764 0.00415535 4.33922e-05
0.0167738 0.00468944 2.18197e-05
0.0170256 0.00386819 -2.12721e-05
0.0176572 0.00460868 6.56493e-06
0.0179582 0.00377753 9.36883e-06
0.0186922 0.0045386 3.03201e-05
0.0194044 0.00392531 1.43967e-05
0.0197475 0.00478906 -2.66714e-05
0.00119205 0.00595022 1.46596e-05
0.000318792 0.00650297 -3.99128e-05
8.13007e-05 0.00571585 -3.26099e-05
0.00180907 0.00521795 -7.07934e-06
0.00212726 0.00645913 -2.06108e-05
0.0026258 0.00563283 3.54227e-05
0.00312308 0.0064111 -2.96496e-05
0.00357911 0.00562852 1.90715e-05
0.00443868 0.00591225 1.72497e-05
0.00535249 0.00576121 2.50127e-05
0.00594613 0.00650219 -4.27825e-05
0.00628826 0.00553436 2.43943e-05
0.00678972 0.00637456 -3.07296e-05
0.00719891 0.00549537 -2.4969e-05
0.00769745 0.00633567 1.47771e-05
0.00817189 0.00556004 -2.62417e-05
0.00863271 0.00633179 -3.20614e-05
0.00925139 0.00566022 -4.70071e-05
0.0101099 0.00574965 4.476e-05
0.010924 0.00555288 -5.06646e-06
0.0113795 0.00651116 -4.22073e-05
0.0117519 0.00566614 2.60985e-05
0.01233 0.00640449 1.83575e-05
0.0125152 0.0055979 -2.28987e-05
0.0132111 0.00609322 2.90979e-05
0.0141514 0.0057716 4.28851e-05
0.0151743 0.00589374 -1.46308e-05
0.0156748 0.00502201 -7.56683e-06
0.0160518 0.00623941 -4.83823e-05
0.0165123 0.00551958 2.89194e-05
0.0169833 0.00632269 3.21564e-05
0.0173147 0.00537649 -4.85919e-05
0.0180716 0.00628236 -1.12464e-05
0.0181391 0.00535575 3.12852e-05
0.0192869 0.00636006 2.46256e-05
0.0190544 0.00549079 -4.44854e-05
0.00126393 0.00681407 -2.73404e-05
0.00114047 0.00795913 -3.38667e-05
0.000599402 0.00725994 -4.2113e-05
0.0001087 0.00807622 1.49646e-05
0.00190244 0.00742537 7.74856e-06
0.00205448 0.00829859 5.5329e-07
0.00283366 0.00725618 3.67542e-05
0.00292743 0.00819996 1.2865e-05
0.00374601 0.00772299 -4.70278e-05
0.00399784 0.00673778 -1.13161e-05
0.00472075 0.00768243 1.72877e-05
0.00505353 0.00677386 -4.33679e-05
0.00568711 0.00765953 7.98975e-06
0.00646376 0.00722427 -4.89198e-05
0.00703992 0.00808619 -1.8846e-05
0.00736054 0.00719545 -2.80691e-05
0.00792204 0.00787591 -4.34141e-05
0.00824086 0.0071232 2.59556e-05
0.00884242 0.00784754 -3.81694e-05
0.00941412 0.00692376 -2.37608e-06
0.00983186 0.00782826 -1.57412e-05
0.0104047 0.00667901 -1.47472e-05
0.0107407 0.00823432 4.979e-05
0.0110299 0.00736024 2.22644e-05
0.0117201 0.00820936 -4.55597e-05
0.0120366 0.00730007 -4.5975e-05
0.0128543 0.00785195 4.23607e-05
0.0130187 0.00699252 4.20701e-05
0.0138478 0.00781601 -5.04024e-06
0.0139025 0.00679903 1.64328e-05
0.014851 0.00792228 -1.6913e-05
0.014906 0.00691184 -4.21217e-05
0.0158193 0.008111 -3.94419e-05
0.0159135 0.00713298 -1.21974e-05
0.0166814 0.0077014 -3.70828e-05
0.0174863 0.00715055 -3.33274e-05
0.0181531 0.00805604 -3.83096e-05
0.0185026 0.00717497 -2.02095e-05
0.0191744 0.00778189 -4.84051e-05
0.0197542 0.00712986 -3.46879e-05
0.00159754 0.00915013 2.66777e-05
0.000800966 0.00875837 -3.96098e-06
0.000730924 0.00962903 -1.72888e-05
0.00231729 0.00997627 2.41907e-05
0.00258017 0.00906487 4.87165e-05
0.00322838 0.00972717 7.50784e-06
0.00347679 0.0088912 -7.08428e-06
0.00419031 0.00954441 6.12283e-06
0.00435667 0.00858025 1.74262e-06
0.00516604 0.00943791 -2.81666e-05
0.00535252 0.00853116 -1.04316e-05
0.00611311 0.00937733 9.49774e-06
0.0062326 0.00848891 -4.45245e-05
0.00694413 0.00902716 3.54547e-06
0.00740556 0.00987088 -2.7703e-05
0.00778848 0.00871495 -4.92713e-05
0.00820239 0.00951274 1.26179e-05
0.0087077 0.00879036 4.93873e-05
0.00910172 0.00970381 -4.18982e-05
0.00971856 0.00886084 -9.33208e-06
0.0106713 0.00928896 -3.72943e-05
0.0113763 0.00989285 1.32074e-05
0.0116143 0.00907922 3.24679e-05
0.0123003 0.0097599 -1.82378e-05
0.0125526 0.00876068 4.17083e-05
0.0132173 0.00962477 2.0062e-05
0.013554 0.00880432 -3.30909e-05
0.0140394 0.00959908 -4.57402e-05
0.0145434 0.00882781 -3.07794e-05
0.0149159 0.00967035 4.85236e-05
0.0154927 0.00898103 -3.2558e-05
0.0158096 0.00994007 -4.73944e-05
0.0164647 0.00883779 -2.5672e-05
0.0167021 0.00969318 -3.5681e-05
0.01732 0.00835103 2.81917e-06
0.0174251 0.00923205 -4.5525e-06
0.0183202 0.00993146 1.70983e-05
0.0199557 0.0090849 -3.41589e-05
0.0183423 0.0089867 -3.29151e-05
0.0191485 0.00955475 4.46827e-05
0.0191483 0.00861116 -3.50995e-05
0.00161015 0.0115948 -2.75196e-05
0.00142482 0.0100976 -3.628e-05
0.00100718 0.0108598 -3.81409e-05
9.9934e-05 0.0110252 4.26166e-05
0.00191737 0.0107563 2.8646e-05
0.00255589 0.0113923 1.79805e-07
0.00297381 0.0105896 -3.0738e-05
0.00353056 0.011316 1.32908e-05
0.00386983 0.0104449 3.19371e-06
0.00449404 0.0112759 -4.05009e-05
0.00488881 0.0103855 2.58338e-05
0.00543432 0.0112342 5.57899e-06
0.00580627 0.0102254 3.55182e-05
0.00633793 0.0110327 -2.60959e-05
0.00662116 0.0101985 1.90003e-05
0.00726898 0.01083 2.40728e-05
0.00805151 0.011538 -1.09524e-05
0.00822758 0.0105092 -2.41459e-05
0.00921046 0.0106623 1.14157e-05
0.00900052 0.011559 -2.28614e-05
0.00997387 0.0100987 7.96265e-06
0.0100583 0.0110613 4.36203e-05
0.0107764 0.0104737 4.40746e-05
0.0109781 0.0113631 4.26806e-05
0.0117222 0.0107232 1.59016e-05
0.0126532 0.010615 -4.05226e-06
0.0131286 0.0112621 -3.49974e-05
0.0135794 0.0104318 -2.12959e-05
0.0139424 0.0112396 -3.47829e-05
0.0144952 0.0103611 -6.10015e-06
0.0148539 0.0112147 -4.9699e-05
0.0158174 0.0110013 -3.49785e-05
0.0165912 0.0105625 -3.04875e-05
0.0166322 0.0115683 2.14731e-05
0.0173252 0.0110702 4.23831e-06
0.0174611 0.0102047 1.54215e-05
0.0183007 0.0109067 -4.02054e-05
0.0190854 0.01043 -1.5365e-05
0.0192201 0.01131 -1.60515e-05
0.0199413 0.0101228 -4.17269e-05
0.00139562 0.012654 1.39627e-05
0.000690996 0.0118009 -9.96495e-06
0.00045558 0.0127301 2.195e-05
0.00226914 0.0123215 1.50647e-05
0.00294938 0.0130598 -2.83946e-05
0.00319405 0.0121451 2.84116e-05
0.00404744 0.0129441 -8.8818e-06
0.00407321 0.0120338 -1.71454e-05
0.00494884 0.0130892 4.3363e-05
0.00504631 0.0121537 3.19528e-05
0.00579794 0.0129022 -3.24457e-07
0.00606847 0.0119614 1.74786e-05
0.00665885 0.0126474 -2.9504e-05
0.00708194 0.0117956 2.61725e-05
0.00757151 0.0127001 -7.28073e-06
0.00855576 0.0124189 2.21972e-05
0.00929626 0.01301 3.4178e-05
0.00982337 0.0119905 -3.43726e-05
0.0101379 0.0129262 2.4284e-05
0.0107605 0.0122965 4.99362e-05
0.0111563 0.0131376 1.79808e-05
0.0119145 0.0117303 3.01021e-05
0.0120732 0.0128005 -4.81269e-05
0.0128238 0.0119908 3.49515e-06
0.0131256 0.012831 8.09002e-06
0.0137731 0.0121017 -1.27408e-05
0.0142639 0.0129712 1.51186e-05
0.0147318 0.0121959 -2.52694e-05
0.0154721 0.0127978 -2.24734e-05
0.0155933 0.01189 -4.84058e-07
0.0163287 0.0124316 2.73575e-05
0.0171433 0.0123298 2.6071e-05
0.0172374 0.0131972 -3.7354e-05
0.0178945 0.0118429 -4.54593e-05
0.0179679 0.0127928 -4.8395e-05
0.0187087 0.0130943 7.82155e-06
0.0188577 0.0121958 -1.47463e-05
0.0195495 0.0129237 -3.72359e-05
0.0197951 0.0120501 -4.13942e-05
0.0011103 0.0135728 -4.1589e-05
0.000957013 0.0145445 -1.31753e-05
0.000177661 0.0136117 -1.17246e-06
0.00190639 0.0145658 -5.27218e-06
0.00201561 0.0133429 2.70269e-05
0.00267325 0.0140034 -4.69919e-05
0.00307851 0.0148445 2.49655e-05
0.0036117 0.0138005 2.96183e-05
0.00398692 0.0146148 1.43924e-05
0.00460154 0.0139052 -3.62044e-05
0.00521624 0.0145407 2.52958e-05
0.00554309 0.0137737 -4.96651e-05
0.00607261 0.0145266 -1.66336e-06
0.00645315 0.0136473 -6.05535e-06
0.00699449 0.014573 -2.79437e-05
0.00743684 0.0137019 1.57621e-06
0.00805371 0.0145646 -3.93501e-06
0.00838769 0.0134468 4.44824e-05
0.00912267 0.0140478 4.05064e-05
0.00976716 0.0147248 -8.94147e-06
0.0089578 0.0149823 -1.15952e-07
0.0100864 0.0138494 -3.1985e-05
0.0106076 0.0146526 2.67646e-06
0.011021 0.0139554 8.79731e-06
0.0114919 0.0146902 -1.90989e-05
0.0118128 0.0137568 1.18363e-05
0.0123293 0.0144652 -1.70971e-05
0.0126952 0.0136423 2.04004e-05
0.0132542 0.0143815 -4.99115e-05
0.0136468 0.0135851 4.34762e-05
0.0141916 0.0146394 2.36495e-05
0.0144918 0.0138164 1.50053e-05
0.0151382 0.0145935 -1.68329e-05
0.0153736 0.0136949 2.59986e-05
0.0161472 0.0144173 -4.8797e-05
0.0162836 0.0133868 -2.94781e-05
0.0171574 0.0141678 -3.80464e-05
0.0180119 0.0146261 6.36771e-07
0.018072 0.0136987 -4.54767e-05
0.0199549 0.0145336 -2.39016e-05
0.0189468 0.0145418 -3.38088e-05
0.0192749 0.0137379 6.46138e-06
0.00144447 0.015398 3.1619e-05
0.00103851 0.0162515 -3.75421e-05
0.00052224 0.015394 1.65265e-05
0.00015015 0.0162431 3.22872e-05
0.00199324 0.0162625 -2.29225e-05
0.00237108 0.0154158 -4.48401e-05
0.00302019 0.0161905 -1.88293e-05
0.00375338 0.0155209 5.22691e-06
0.00400124 0.0163416 -2.84806e-06
0.00465379 0.0152447 3.75063e-05
0.00492336 0.016197 -2.57249e-06
0.00558752 0.0153352 -3.31627e-05
0.00594448 0.016218 4.29286e-05
0.00656806 0.0154128 3.83299e-05
0.00693282 0.0162875 8.05502e-06
0.00748964 0.0153704 -1.60873e-07
0.00781167 0.0162825 4.44584e-05
0.00840266 0.0156745 1.77529e-05
0.00920809 0.0160938 1.78253e-05
0.00994774 0.0155475 1.34032e-05
0.0100342 0.016367 -1.78006e-05
0.0107884 0.0163488 3.69213e-05
0.0109523 0.0154955 -2.36735e-05
0.0116441 0.0162676 -3.81553e-05
0.0120342 0.0154055 -3.46021e-05
0.0126423 0.0162176 4.68532e-05
0.0130617 0.0153168 -4.47667e-06
0.0136346 0.0163156 -3.82493e-05
0.0140172 0.0155212 4.44816e-05
0.0145506 0.016297 2.60965e-05
0.0149332 0.0154789 -1.42244e-05
0.0154691 0.0162595 -2.63927e-05
0.0158689 0.0153997 1.45032e-05
0.0163485 0.0162682 1.42827e-05
0.0168904 0.0152249 8.61202e-06
0.0172692 0.0162314 1.04172e-05
0.0178024 0.0154404 -1.6534e-05
0.0182733 0.0162461 1.14277e-05
0.0186737 0.0153945 3.47044e-05
0.0192479 0.0162476 4.63278e-05
0.0196025 0.0154169 -1.23126e-05
VERTICES 400 800
1 0
1 1
1 2
1 3
1 4
1 5
1 6
1 7
1 8
1 9
1 10
1 11
1 12
1 13
1 14
1 15
1 16
1 17
1 18
1 19
1 20
1 21
1 22
1 23
1 24
1 25
1 26
1 27
1 28
1 29
1 30
1 31
1 32
1 33
1 34
1 35
1 36
1 37
1 38
1 39
1 40
1 41
1 42
1 43
1 44
1 45
1 46
1 47
1 48
1 49
1 50
1 51
1 52
1 53
1 54
1 55
1 56
1 57
1 58
1 59
1 60
1 61
1 62
1 63
1 64
1 65
1 66
1 67
1 68
1 69
1 70
1 71
1 72
1 73
1 74
1 75
1 76
1 77
1 78
1 79
1 80
1 81
1 82
1 83
1 84
1 85
1 86
1 87
1 88
1 89
1 90
1 91
1 92
1 93
1 94
1 95
1 96
1 97
1 98
1 99
1 100
1 101
1 102
1 103
1 104
1 105
1 106
1 107
1 108
1 109
1 110
1 111
1 112
1 113
1 114
1 115
1 116
1 117
1 118
1 119
1 120
1 121
1 122
1 123
1 124
1 125
1 126
1 127
1 128
1 129
1 130
1 131
1 132
1 133
1 134
1 135
1 136
1 137
1 138
1 139
1 140
1 141
1 142
1 143
1 144
1 145
1 146
1 147
1 148
1 149
1 150
1 151
1 152
1 153
1 154
1 155
1 156
1 157
1 158
1 159
1 160
1 161
1 162
1 163
1 164
1 165
1 166
1 167
1 168
1 169
1 170
1 171
1 172
1 173
1 174
1 175
1 176
1 177
1 178
1 179
1 180
1 181
1 182
1 183
1 184
1 185
1 186
1 187
1 188
1 189
1 190
1 191
1 192
1 193
1 194
1 195
1 196
1 197
1 198
1 199
1 200
1 201
1 202
1 203
1 204
1 205
1 206
1 207
1 208
1 209
1 210
1 211
1 212
1 213
1 214
1 215
1 216
1 217
1 218
1 219
1 220
1 221
1 222
1 223
1 224
1 225
1 226
1 227
1 228
1 229
1 230
1 231
1 232
1 233
1 234
1 235
1 236
1 237
1 238
1 239
1 240
1 241
1 242
1 243
1 244
1 245
1 246
1 247
1 248
1 249
1 250
1 251
1 252
1 253
1 254
1 255
1 256
1 257
1 258
1 259
1 260
1 261
1 262
1 263
1 264
1 265
1 266
1 267
1 268
1 269
1 270
1 271
1 272
1 273
1 274
1 275
1 276
1 277
1 278
1 279
1 280
1 281
1 282
1 283
1 284
1 285
1 286
1 287
1 288
1 289
1 290
1 291
1 292
1 293
1 294
1 295
1 296
1 297
1 298
1 299
1 300
1 301
1 302
1 303
1 304
1 305
1 306
1 307
1 308
1 309
1 310
1 311
1 312
1 313
1 314
1 315
1 316
1 317
1 318
1 319
1 320
1 321
1 322
1 323
1 324
1 325
1 326
1 327
1 328
1 329
1 330
1 331
1 332
1 333
1 334
1 335
1 336
1 337
1 338
1 339
1 340
1 341
1 342
1 343
1 344
1 345
1 346
1 347
1 348
1 349
1 350
1 351
1 352
1 353
1 354
1 355
1 356
1 357
1 358
1 359
1 360
1 361
1 362
1 363
1 364
1 365
1 366
1 367
1 368
1 369
1 370
1 371
1 372
1 373
1 374
1 375
1 376
1 377
1 378
1 379
1 380
1 381
1 382
1 383
1 384
1 385
1 386
1 387
1 388
1 389
1 390
1 391
1 392
1 393
1 394
1 395
1 396
1 397
1 398
1 399
POINT_DATA 400
VECTORS f float
-1.04963e-09 -6.2892e-09 0.0
2.12416e-09 -1.14817e-08 0.0
3.20282e-09 -6.43129e-09 0.0
5.43822e-10 -1.489e-08 0.0
-9.30097e-10 -9.78923e-09 0.0
-1.18185e-09 -1.58216e-08 0.0
-1.24309e-09 -1.31444e-08 0.0
1.84853e-09 -1.51947e-08 0.0
-3.84628e-10 -1.08084e-08 0.0
1.79664e-10 -7.71436e-09 0.0
-1.00559e-09 -8.7886e-09 0.0
-4.06053e-09 -1.43187e-08 0.0
-3.67049e-09 4.3018e-10 0.0
-1.60701e-10 -2.69391e-09 0.0
-5.9222e-10 -2.72e-10 0.0
-2.52257e-08 1.38738e-08 0.0
-2.15999e-09 1.10459e-09 0.0
-4.17933e-09 6.47465e-09 0.0
-1.6722e-08 1.35514e-08 0.0
-4.65238e-09 1.20207e-08 0.0
-3.03477e-09 1.54299e-08 0.0
2.47807e-09 1.61373e-08 0.0
-1.05702e-09 6.29492e-09 0.0
5.2092e-09 1.30664e-08 0.0
1.29427e-08 1.68983e-08 0.0
5.56791e-09 6.75533e-09 0.0
2.253e-08 1.30855e-08 0.0
4.61308e-09 2.53117e-09 0.0
2.7375e-08 6.49752e-09 0.0
1.59494e-08 7.06742e-09 0.0
2.61385e-08 8.59676e-09 0.0
1.22302e-08 2.38334e-09 0.0
7.08019e-09 6.38759e-09 0.0
8.57964e-09 2.19609e-09 0.0
1.4138e-08 2.72452e-09 0.0
6.95797e-09 7.18656e-09 0.0
3.79314e-09 1.24768e-09 0.0
1.07452e-09 -9.84353e-09 0.0
1.2321e-08 3.77186e-09 0.0
1.95996e-09 -4.49957e-10 0.0
2.47594e-08 -1.92019e-08 0.0
2.16394e-08 -2.07989e-08 0.0
4.73005e-09 -1.66078e-08 0.0
1.73189e-09 -2.26908e-08 0.0
1.2294e-09 -1.85982e-08 0.0
-2.31451e-09 -2.35745e-08 0.0
2.54554e-10 -5.1777e-08 0.0
-2.61695e-09 -3.01253e-08 0.0
-1.26955e-08 -2.17296e-08 0.0
-4.63997e-09 -1.903e-08 0.0
-1.09138e-08 -1.09874e-08 0.0
-2.78126e-08 -3.01306e-09 0.0
-1.16506e-08 -4.39789e-10 0.0
-1.47977e-08 5.10631e-09 0.0
-1.59071e-08 1.31272e-08 0.0
-1.83972e-08 1.1939e-08 0.0
-3.67401e-08 2.62937e-08 0.0
-2.9657e-08 2.38616e-08 0.0
-1.54156e-08 1.26221e-08 0.0
-2.31091e-08 2.50266e-08 0.0
-1.08735e-08 1.80629e-08 0.0
-8.31653e-09 1.42517e-08 0.0
-2.08995e-09 1.79163e-08 0.0
2.09303e-09 1.80146e-08 0.0
5.04317e-09 1.71902e-08 0.0
1.3074e-08 4.63289e-09 0.0
2.42266e-08 1.04061e-08 0.0
2.23809e-08 6.24076e-09 0.0
2.29671e-08 5.57407e-09 0.0
2.27198e-08 1.35531e-08 0.0
3.8766e-08 9.17887e-09 0.0
3.55158e-08 2.92309e-08 0.0
3.00973e-08 1.34397e-08 0.0
2.94788e-08 1.91279e-08 0.0
1.84105e-08 7.22646e-09 0.0
2.82384e-08 3.48523e-09 0.0
3.44822e-08 4.86491e-09 0.0
2.49403e-08 1.34427e-08 0.0
2.53718e-08 9.84881e-09 0.0
3.50598e-08 8.06819e-09 0.0
1.89363e-08 -1.13225e-08 0.0
1.54483e-08 -2.68675e-08 0.0
-1.53055e-08 -1.67786e-08 0.0
-1.06327e-08 -2.61986e-08 0.0
-6.19195e-08 -3.19283e-08 0.0
3.90807e-09 -1.67837e-08 0.0
-2.40906e-08 -1.25582e-08 0.0
2.1114e-09 -2.75553e-08 0.0
-3.57609e-08 -5.65334e-08 0.0
-4.76207e-09 -4.56731e-08 0.0
-5.88122e-08 -5.10307e-08 0.0
-2.63661e-08 -3.57297e-08 0.0
-6.31282e-08 -2.06088e-08 0.0
-2.46543e-08 -5.99955e-09 0.0
-5.74367e-08 8.90293e-09 0.0
-3.50317e-08 1.17906e-08 0.0
-7.2363e-08 3.45508e-08 0.0
-3.08303e-08 1.88765e-08 0.0
-3.2469e-08 2.53019e-08 0.0
-4.37825e-08 3.29373e-08 0.0
-1.69307e-08 2.12773e-08 0.0
-4.29039e-08 2.43064e-08 0.0
-9.85159e-09 9.3531e-09 0.0
-3.79534e-08 1.05577e-08 0.0
-2.12576e-09 1.59162e-08 0.0
-2.43859e-08 -1.48099e-08 0.0
3.37704e-09 9.05994e-10 0.0
-1.9532e-08 -3.34658e-09 0.0
9.44087e-09 2.95796e-09 0.0
-9.84072e-09 2.66515e-09 0.0
6.16127e-09 1.09726e-08 0.0
-1.13531e-08 1.17245e-08 0.0
6.93906e-09 2.0383e-08 0.0
-8.26126e-09 1.43141e-08 0.0
-1.37971e-08 3.51173e-09 0.0
-1.69881e-08 -6.83745e-09 0.0
-2.62469e-08 3.04821e-09 0.0
-6.46837e-09 3.93403e-09 0.0
-6.11281e-08 1.44997e-08 0.0
-1.1531e-08 1.04377e-08 0.0
-5.53432e-08 1.19777e-08 0.0
-4.44187e-08 -2.08974e-08 0.0
-8.28572e-09 -4.43657e-10 0.0
-1.66617e-08 1.01646e-10 0.0
-4.51349e-08 -2.15615e-08 0.0
-5.57775e-08 -2.65257e-08 0.0
-5.27937e-08 -2.46987e-08 0.0
-3.59927e-08 -2.67849e-08 0.0
-7.33938e-08 -6.92679e-08 0.0
-4.70665e-08 -3.60406e-08 0.0
-7.93656e-08 -2.20205e-08 0.0
-3.56006e-08 -2.27828e-09 0.0
-3.9486e-08 2.14663e-10 0.0
-5.22289e-08 1.5838e-08 0.0
-6.13195e-08 2.15833e-08 0.0
-6.06884e-08 2.59264e-08 0.0
-4.92074e-08 2.09884e-08 0.0
-6.07651e-08 2.60399e-08 0.0
-5.6947e-08 2.73386e-08 0.0
-5.08959e-08 2.7089e-08 0.0
-5.2801e-08 8.51326e-09 0.0
-4.92539e-08 -8.18791e-09 0.0
-4.55406e-08 -1.37252e-08 0.0
-4.25872e-08 -1.66124e-08 0.0
-2.64622e-08 -9.39325e-09 0.0
-4.29952e-08 -2.2918e-08 0.0
-6.00544e-08 -1.20855e-08 0.0
-4.91186e-08 1.17223e-08 0.0
-2.02776e-08 1.23824e-08 0.0
-3.72438e-08 2.79528e-09 0.0
-3.62761e-08 4.10073e-09 0.0
-3.29112e-08 8.80533e-09 0.0
-2.39364e-08 5.3304e-09 0.0
-7.04542e-08 6.79966e-09 0.0
-4.15664e-08 4.8491e-09 0.0
-4.34429e-08 1.08317e-08 0.0
-4.87626e-08 1.59334e-08 0.0
-2.72497e-08 -9.52684e-09 0.0
-3.53384e-08 -1.14315e-08 0.0
-2.11489e-08 -2.74011e-09 0.0
-4.07747e-08 -7.73045e-09 0.0
-3.34289e-08 -1.67677e-08 0.0
-1.85318e-08 -1.15333e-08 0.0
-4.52754e-08 -3.5725e-08 0.0
-2.15253e-08 -1.96652e-08 0.0
-3.24838e-08 -2.36879e-08 0.0
-5.52761e-08 -5.27722e-08 0.0
-3.63674e-08 -8.02641e-09 0.0
-7.89512e-08 -1.53597e-08 0.0
-4.8074e-08 -3.0419e-09 0.0
-5.15954e-08 1.14648e-08 0.0
-3.53714e-08 3.94577e-08 0.0
-4.21614e-08 2.2024e-08 0.0
-2.06766e-08 1.4059e-08 0.0
-3.64475e-08 1.77481e-08 0.0
-4.52252e-08 2.14235e-08 0.0
-6.5733e-08 2.74401e-08 0.0
-3.5364e-08 3.52368e-09 0.0
-6.40172e-08 1.80796e-08 0.0
-2.55465e-08 -1.64934e-08 0.0
-1.94275e-08 -4.43024e-09 0.0
-1.92377e-08 -1.90396e-08 0.0
-3.60671e-08 -2.08539e-08 0.0
-2.07451e-08 -1.67896e-08 0.0
-2.33984e-08 -1.63082e-08 0.0
-3.9665e-08 -1.55901e-08 0.0
-2.93442e-08 -1.03256e-08 0.0
-2.9866e-08 -8.14712e-10 0.0
-4.95139e-08 6.80932e-09 0.0
-3.92472e-08 5.00566e-09 0.0
-3.67682e-08 2.82607e-09 0.0
-4.37089e-08 8.32903e-09 0.0
-5.46566e-08 1.14995e-08 0.0
-2.99764e-08 -3.76917e-10 0.0
-5.15653e-08 -2.60555e-09 0.0
-2.77552e-08 -6.40466e-09 0.0
-2.88446e-08 -5.7079e-09 0.0
-2.43589e-08 -1.48259e-08 0.0
-1.3717e-08 -4.9225e-09 0.0
-1.94324e-08 -8.93459e-09 0.0
-1.0306e-08 -1.49435e-08 0.0
-1.85354e-08 -1.72187e-08 0.0
-7.87415e-09 -1.05368e-08 0.0
-1.50221e-08 -9.89555e-09 0.0
-1.09046e-08 -2.66735e-09 0.0
-3.95497e-08 -9.08894e-09 0.0
-7.5108e-09 4.01905e-09 0.0
-2.90906e-08 -1.51305e-09 0.0
-9.76985e-09 1.82828e-08 0.0
-1.10492e-08 1.17417e-08 0.0
-9.48305e-09 2.51695e-08 0.0
3.43168e-09 3.18896e-08 0.0
-1.26228e-08 1.99406e-08 0.0
-1.07737e-09 1.8218e-08 0.0
-1.55333e-08 1.40641e-08 0.0
3.57403e-09 8.53835e-10 0.0
-1.77581e-08 -4.92796e-09 0.0
-1.03792e-08 -1.73115e-08 0.0
-4.87507e-09 -1.38973e-08 0.0
-1.00415e-08 -1.37713e-08 0.0
-1.70253e-08 -2.54639e-08 0.0
-2.61444e-08 -2.61678e-08 0.0
-1.25135e-08 -5.31249e-09 0.0
-2.47469e-08 -1.13964e-08 0.0
-1.75027e-08 -3.07968e-09 0.0
-3.18683e-08 -1.64306e-09 0.0
-2.2664e-08 1.94314e-09 0.0
-3.11633e-08 2.67463e-09 0.0
-4.01747e-08 5.17627e-09 0.0
-3.45322e-08 5.61832e-09 0.0
-2.23539e-08 2.29691e-09 0.0
-2.71445e-08 1.89057e-09 0.0
-3.19196e-08 8.29389e-10 0.0
-2.73536e-08 -5.7429e-09 0.0
-3.47848e-08 -1.00001e-08 0.0
-3.45875e-08 -3.50176e-09 0.0
-2.58051e-08 -7.20639e-09 0.0
-2.31407e-08 -5.28686e-09 0.0
-9.65147e-09 -1.63475e-08 0.0
-9.2301e-09 -9.40303e-09 0.0
-9.09847e-09 -1.3291e-08 0.0
-1.48495e-08 -1.2503e-08 0.0
-5.05187e-09 -9.39104e-09 0.0
-7.04353e-09 -1.58166e-08 0.0
-3.30777e-09 -8.72507e-09 0.0
-3.46144e-09 -5.87344e-09 0.0
-3.34542e-09 -6.01682e-09 0.0
-1.52277e-09 3.86753e-09 0.0
-1.47385e-09 1.05147e-08 0.0
-1.91544e-10 1.2515e-08 0.0
-6.57132e-10 1.47597e-08 0.0
1.27752e-09 2.1042e-08 0.0
2.6847e-09 1.63677e-08 0.0
3.84408e-09 2.6385e-08 0.0
-3.8191e-09 -1.8131e-08 0.0
1.59012e-08 1.97484e-08 0.0
1.59124e-08 -1.01962e-08 0.0
8.63001e-09 -2.02348e-08 0.0
7.5749e-09 -1.3258e-08 0.0
9.93433e-09 -1.74893e-08 0.0
3.11886e-09 -1.43069e-08 0.0
-2.72761e-10 -2.11136e-08 0.0
-5.0361e-09 -1.92426e-08 0.0
-1.36471e-08 -9.83146e-09 0.0
-1.75385e-08 -2.26295e-09 0.0
-3.02468e-08 -4.49542e-09 0.0
-1.60746e-08 2.21663e-10 0.0
-2.16624e-08 1.75907e-10 0.0
-3.55811e-08 2.97682e-09 0.0
-2.82073e-08 3.60857e-09 0.0
-2.90332e-08 3.13484e-09 0.0
-2.68996e-08 -1.03392e-09 0.0
-1.84426e-08 -1.8839e-09 0.0
-3.33843e-08 -1.83482e-09 0.0
-2.6886e-08 -1.00753e-08 0.0
-1.88742e-08 -7.4282e-09 0.0
-1.97542e-08 -1.24603e-08 0.0
-2.19818e-08 -1.00142e-08 0.0
-9.49428e-09 -1.98679e-08 0.0
-1.64732e-08 -2.3032e-08 0.0
-1.24062e-08 -1.9961e-08 0.0
-8.72037e-09 -1.54594e-08 0.0
-1.38477e-08 -1.29035e-08 0.0
-6.87678e-09 -8.72006e-09 0.0
-1.42517e-08 1.69946e-09 0.0
-5.59378e-09 -3.29311e-10 0.0
-8.99375e-09 5.16673e-09 0.0
-8.91023e-09 1.53108e-08 0.0
-1.07646e-08 1.8272e-08 0.0
-1.84778e-09 2.30394e-08 0.0
1.49521e-09 1.4996e-08 0.0
-4.51562e-09 1.88106e-08 0.0
1.56521e-08 -1.7613e-08 0.0
-3.1366e-09 -4.43823e-08 0.0
-4.74794e-09 -4.10963e-08 0.0
5.44449e-09 -1.27421e-08 0.0
-1.19963e-08 -2.03264e-08 0.0
4.84353e-09 -1.98987e-08 0.0
-1.51545e-08 -1.14973e-08 0.0
-1.94469e-08 -1.21344e-08 0.0
-4.32786e-08 -1.35917e-09 0.0
-1.92099e-08 6.86654e-10 0.0
-3.61399e-08 2.72348e-09 0.0
-3.50255e-08 2.21635e-09 0.0
-2.48453e-08 1.43068e-09 0.0
-3.12293e-08 3.41605e-09 0.0
-1.83277e-08 1.38695e-09 0.0
-2.79176e-08 2.4436e-09 0.0
-2.41612e-08 -1.29818e-09 0.0
-1.30552e-08 -3.10691e-09 0.0
-1.50606e-08 -6.79191e-09 0.0
-3.50663e-08 -1.4369e-08 0.0
-1.19888e-08 -7.92706e-09 0.0
-8.60751e-09 -7.91716e-09 0.0
-2.24538e-08 -1.73822e-08 0.0
-1.33494e-08 -1.70377e-08 0.0
-1.4279e-08 -1.5483e-08 0.0
-1.17937e-08 -2.13784e-08 0.0
-9.11511e-09 -1.44341e-08 0.0
-9.32264e-09 -1.57478e-08 0.0
-1.25411e-08 -1.03032e-08 0.0
-8.72072e-09 -1.18578e-08 0.0
-1.42254e-08 -9.23601e-09 0.0
-1.54815e-08 -3.5236e-09 0.0
-1.67374e-08 -2.4475e-09 0.0
-1.44058e-08 1.38706e-09 0.0
-2.0113e-08 7.98206e-09 0.0
-1.22625e-08 7.37221e-09 0.0
-1.83845e-08 1.18733e-08 0.0
-1.14818e-08 1.02588e-08 0.0
-3.35572e-08 2.40099e-08 0.0
3.08755e-09 -6.61593e-10 0.0
-5.64248e-08 -3.54506e-08 0.0
-8.52371e-08 -1.5405e-08 0.0
-6.43442e-08 -5.51498e-08 0.0
-7.5535e-08 -1.03706e-08 0.0
-4.13009e-08 -1.03899e-08 0.0
-4.57216e-08 8.4094e-09 0.0
-1.00816e-07 -3.23616e-08 0.0
-3.77339e-08 -1.15155e-08 0.0
-3.61929e-08 -1.27044e-08 0.0
-4.3394e-08 -1.74125e-08 0.0
-3.5513e-08 -1.33882e-09 0.0
-2.50161e-08 5.0059e-09 0.0
-3.0896e-08 3.52108e-09 0.0
-3.42659e-08 1.23058e-09 0.0
-2.17974e-08 1.31055e-09 0.0
-1.7598e-08 -9.03188e-10 0.0
-1.76755e-08 -4.24049e-11 0.0
-1.58335e-08 -1.91518e-09 0.0
-1.796e-08 -6.12184e-10 0.0
-1.433e-08 -4.5762e-09 0.0
-2.43153e-08 -3.4635e-09 0.0
-1.27717e-08 -9.35418e-09 0.0
-6.38436e-09 -8.95549e-09 0.0
-1.27729e-08 -1.2251e-08 0.0
-1.12428e-08 -1.92861e-08 0.0
-8.32098e-09 -1.3864e-08 0.0
-7.77102e-09 -1.17695e-08 0.0
-6.9544e-09 -6.18362e-09 0.0
-3.09731e-09 -2.06972e-09 0.0
-6.39354e-09 -1.09037e-08 0.0
-2.21616e-09 -4.385e-09 0.0
-5.8749e-09 -1.71368e-09 0.0
-1.10719e-08 -4.96381e-09 0.0
-8.95992e-09 -2.16482e-09 0.0
-1.21835e-08 5.67998e-10 0.0
-4.42974e-09 6.51266e-11 0.0
-1.50966e-08 6.37722e-09 0.0
-8.60941e-09 2.67597e-09 0.0
-9.04696e-09 5.62073e-09 0.0
-4.0938e-09 1.85871e-09 0.0
4.98404e-09 2.38398e-09 0.0
-3.95635e-09 4.02167e-09 0.0
1.16961e-08 5.33783e-08 0.0
-7.61903e-09 5.97298e-09 0.0
-1.44884e-08 2.01091e-08 0.0
-1.44725e-08 1.71754e-08 0.0
-3.33796e-08 -4.10093e-09 0.0
-5.5352e-09 -3.38268e-10 0.0
-5.25913e-09 -3.80333e-09 0.0
-4.18703e-08 -1.83583e-08 0.0
-8.91482e-09 -9.24205e-09 0.0
-1.83601e-08 -1.2925e-08 0.0
-8.33015e-09 -4.29364e-09 0.0
-1.69874e-08 1.80266e-09 0.0
-3.12648e-09 -1.73827e-11 0.0
-9.34334e-09 -1.41499e-09 0.0
-3.31598e-09 -8.78786e-10 0.0
-6.87009e-09 -1.41339e-09 0.0
-2.60404e-09 -1.88337e-09 0.0
-6.75346e-09 -3.90757e-09 0.0
-1.15422e-09 -1.54671e-09 0.0
-7.07365e-09 -8.21342e-09 0.0
-1.6791e-09 -3.56691e-09 0.0
-1.73524e-09 -3.39865e-09 0.0
-1.60886e-09 -4.85747e-09 0.0
-3.28232e-09 -7.63568e-09 0.0
-1.82942e-09 -4.21787e-09 0.0
-3.51425e-09 -7.1167e-09 0.0
VECTORS omega float
-0.0320003 -0.182733 0.0380298
0.0923759 0.086761 -0.033566
-0.00988487 -0.0423427 -0.00874712
-0.0340212 -0.0910948 -0.000726848
0.00217477 0.150505 0.0227619
0.0514986 0.093794 0.0283132
7.92701e-05 -0.140666 0.0107637
-0.127752 -0.0174314 0.0193117
0.0949401 0.0244825 0.0196421
0.00341553 0.145794 0.0033773
0.0001873 -0.139504 0.0147819
-0.0594036 0.0454634 0.00538394
0.0704431 -0.0487026 0.0472288
-0.00381576 0.147047 0.0145723
-0.00180024 -0.1307 0.011713
0.0356211 -0.0253593 0.0904594
0.00549042 0.152317 -0.0232559
0.00108118 -0.0396717 -0.0141635
0.0432014 -0.107354 0.0876092
-0.00473985 0.0363549 0.00698494
0.0271106 -0.016549 0.0412548
-0.0184093 0.0176624 0.0211305
-0.00054147 -0.044513 0.0157255
-0.00449124 0.0383023 0.0234229
0.0284477 -0.0176716 0.0138627
-0.00423826 -0.0426843 0.00989702
-0.000109932 0.0200819 -0.00188748
-0.00746619 0.0525976 0.030297
-0.0122511 -0.0255284 0.0647881
0.0121382 -0.0412397 -0.0113554
-0.0840032 -0.187472 0.0333462
0.00210818 0.0435839 0.0291977
-0.173576 0.171861 0.113286
0.210423 -0.0378454 -0.0430092
0.0617741 -0.0218745 0.104799
-0.00894367 0.0465814 0.00355926
-0.00451582 -0.0495764 0.00508062
0.0630711 -0.0988811 0.15465
-0.0333401 0.0162522 0.10922
0.00227935 0.0518427 -0.000370583
-0.127265 0.902054 0.0716983
-0.289105 -0.208483 -0.00973412
0.0766571 0.0830086 0.0376034
-0.0614271 -0.0668786 0.0397093
-0.0718784 -0.0947732 0.00939903
0.068023 0.0708269 0.0114751
-0.0874154 0.0613672 0.0660765
0.0887441 -0.0531611 0.00291096
-0.000660879 -0.0510981 0.0956969
-0.0470431 0.0470002 0.0230559
0.0883117 -0.0184987 -0.0166813
-0.0460204 0.043932 0.0450355
-0.0711893 0.00931614 0.0302673
0.0616218 -0.0417204 -0.0114182
-0.0717306 0.0445864 0.0160248
0.0561625 0.0721375 0.0304323
-0.0330551 -0.0669994 -0.000382325
-0.000728448 0.0166609 0.00407472
-0.0505145 0.0765076 -0.0217566
0.037223 -0.0137193 0.0116123
-0.00779662 -0.0676615 0.0174168
-0.0248339 0.0148107 -0.00280174
-0.0105299 0.0693445 0.030222
0.0447319 -0.0133572 0.00349661
0.00187076 -0.0757874 0.0533989
0.0157435 0.0156245 -0.00353484
0.00269794 -0.0455357 0.0808153
-0.0199691 -0.00195558 0.013871
0.0142547 0.0164698 0.0459084
-0.000509026 0.00084759 0.0161297
-0.0213346 -0.00905496 -0.00586804
0.00626326 -0.00589979 0.0436084
0.0139246 0.0105254 0.0606326
-0.0114177 0.00983938 -0.0471991
0.133029 -0.224727 0.0162753
-0.0513976 -0.0301348 -0.0164168
-0.0557778 0.199697 0.000845317
0.126534 -0.145271 -0.00154903
0.0469926 -0.210755 -0.000679171
-0.0743834 0.136659 0.011014
-0.0884299 0.216632 -0.0523972