# vtk DataFile Version 2.0
Generated by lpp.py
ASCII
DATASET POLYDATA
POINTS 400 float
0.00132458 0.000443562 3.36586e-05
0.000909057 0.00128622 -1.66342e-05
0.000242991 0.000443143 -3.64628e-05
0.001832 0.00127767 5.09221e-06
0.00226689 0.000435624 -1.24497e-05
0.00273836 0.00128766 4.63423e-05
0.00324596 0.000515957 4.67087e-05
0.00374256 0.0012919 -1.5404e-05
0.00460411 0.00119566 -2.0603e-05
0.0041726 0.000417346 3.04549e-05
0.00511574 0.000469808 4.04467e-05
0.00566798 0.00130831 -2.65834e-05
0.00663967 0.00128966 -2.02466e-06
0.00602152 0.000418893 -1.20537e-05
0.00693128 0.000445444 3.91278e-05
0.00824221 0.00117622 -1.82355e-06
0.00779486 0.000364348 3.24564e-05
0.0087669 0.000398704 -3.28708e-05
0.00930043 0.00138477 3.24568e-05
0.00975719 0.00049092 -2.76781e-05
0.0103848 0.00131154 -4.92787e-05
0.0113764 0.00139198 -4.32784e-06
0.0107648 0.000443771 -3.96086e-06
0.0117794 0.000485554 -1.32742e-05
0.0124047 0.00132982 1.95463e-05
0.0127807 0.000442754 1.3181e-05
0.0134327 0.00122615 3.75182e-05
0.0136133 0.000329986 1.89547e-05
0.0143503 0.00162003 1.99029e-05
0.014364 0.000727356 -4.71808e-05
0.0156453 0.00128564 1.72248e-05
0.0152271 0.000426894 3.7231e-06
0.0165475 0.00131572 3.54547e-05
0.0161573 0.00050363 -4.85386e-05
0.0177926 0.00133102 -3.92382e-05
0.0171608 0.000538062 -3.8784e-05
0.0182409 0.000486084 3.096e-05
0.0199945 0.00131565 4.93031e-05
0.0189167 0.00128032 6.72355e-06
0.0192496 0.000430881 -3.72737e-05
0.000903831 0.00230729 5.14548e-06
0.000376808 0.00315737 -4.9345e-05
0.00206119 0.00294636 -3.17454e-05
0.00231937 0.00211916 -1.41959e-06
0.00291915 0.00285024 3.50109e-05
0.00325228 0.0020195 -3.46654e-05
0.00385969 0.00297752 -3.02218e-05
0.00412481 0.00209073 3.70504e-05
0.00497689 0.0030011 3.07542e-05
0.00497243 0.00196083 -2.23732e-05
0.00564015 0.00243834 -2.11247e-06
0.00622978 0.00307385 -3.67063e-05
0.00641854 0.00213341 3.11799e-05
0.00698432 0.00271054 -2.75116e-05
0.00731251 0.00191182 4.80419e-05
0.00772037 0.00291345 1.77683e-05
0.00828075 0.00219946 -3.97226e-05
0.00875832 0.00311976 4.55657e-05
0.00924147 0.00230683 1.80717e-05
0.00979714 0.00312838 -3.93388e-05
0.0101303 0.00222315 2.40231e-05
0.0107313 0.00309811 2.716e-05
0.0110906 0.00228155 -4.78087e-05
0.011652 0.00309638 -4.25165e-05
0.012054 0.00222703 -4.01526e-05
0.0126189 0.00312494 2.94528e-05
0.013102 0.00222953 4.21294e-05
0.0136464 0.00314416 2.4953e-06
0.014161 0.00242054 2.35941e-05
0.0146232 0.00314231 -2.89305e-05
0.0150758 0.00224476 3.21045e-05
0.0156088 0.00308968 2.08022e-05
0.0159997 0.00209326 1.69816e-05
0.0164968 0.00284518 -1.31875e-05
0.016921 0.00207886 -2.13541e-05
0.017351 0.00302223 -2.48084e-05
0.0178572 0.0022446 7.17441e-06
0.0184364 0.0030293 -3.11061e-05
0.0188548 0.00220901 -6.697e-06
0.0194265 0.00303866 1.88296e-05
0.0198453 0.00217662 2.40593e-05
0.00131116 0.00346529 4.11056e-07
0.00153342 0.00437962 -3.43082e-05
0.000510646 0.00405349 4.11872e-05
0.000783136 0.00499851 1.15215e-05
0.00224612 0.00383277 4.14547e-05
0.0026176 0.00468369 2.79416e-05
0.00312987 0.00368793 -1.57031e-06
0.00358952 0.00469938 5.32063e-06
0.00401135 0.00391643 -2.6529e-06
0.00457526 0.00494667 -3.58607e-05
0.0049872 0.00397175 -2.13321e-05
0.00565173 0.00479155 -4.97251e-05
0.00596337 0.00390431 -2.41619e-05
0.00666615 0.00459887 -2.57589e-05
0.00701275 0.00365674 -4.22335e-05
0.00773571 0.00462642 4.30556e-05
0.00795088 0.00368317 4.42331e-05
0.00876747 0.00406141 -4.39636e-05
0.00978976 0.00487338 4.93343e-05
0.00960019 0.00400223 4.05756e-05
0.00869732 0.00490867 -1.72291e-05
0.0104148 0.0038794 -3.72271e-05
0.0107576 0.00467068 4.50596e-05
0.0112736 0.00394383 1.35023e-05
0.011925 0.00475453 3.81834e-05
0.012133 0.00389329 3.14585e-06
0.012894 0.00492836 -2.4127e-05
0.0131217 0.00399481 1.0814e-05
0.0137544 0.00483784 -4.51984e-05
0.0141777 0.00402809 1.00341e-06
0.0146993 0.00489098 6.87793e-06
0.0151463 0.0039591 1.87838e-05
0.0160714 0.00415553 4.33922e-05
0.0167688 0.00468929 2.18197e-05
0.0170206 0.00386768 -2.12721e-05
0.0176519 0.00460841 6.56493e-06
0.0179536 0.00377719 9.36883e-06
0.0186868 0.00453817 3.03201e-05
0.0193996 0.0039249 1.43967e-05
0.0197419 0.00478833 -2.66714e-05
0.00118493 0.00594954 1.46596e-05
0.000310577 0.00650285 -3.99128e-05
7.49549e-05 0.005715 -3.26099e-05
0.001803 0.00521777 -7.07934e-06
0.0021195 0.00645892 -2.06108e-05
0.00261899 0.00563285 3.54227e-05
0.00311566 0.00641084 -2.96496e-05
0.00357239 0.00562831 1.90715e-05
0.00443202 0.00591207 1.72497e-05
0.00534597 0.00576117 2.50127e-05
0.00593879 0.00650225 -4.27825e-05
0.00628213 0.00553425 2.43943e-05
0.00678251 0.00637445 -3.07296e-05
0.00719276 0.00549522 -2.4969e-05
0.00769036 0.00633591 1.47771e-05
0.00816559 0.00556049 -2.62417e-05
0.00862578 0.00633222 -3.20614e-05
0.00924494 0.00566101 -4.70071e-05
0.0101032 0.00575205 4.476e-05
0.0109169 0.00555351 -5.06646e-06
0.0113724 0.00651058 -4.22073e-05
0.011745 0.00566467 2.60985e-05
0.0123229 0.00640334 1.83575e-05
0.0125087 0.00559694 -2.28987e-05
0.0132042 0.00609278 2.90979e-05
0.0141449 0.00577121 4.28851e-05
0.0151679 0.00589316 -1.46308e-05
0.0156696 0.00502212 -7.56683e-06
0.0160451 0.00623947 -4.83823e-05
0.0165066 0.00551965 2.89194e-05
0.0169762 0.00632259 3.21564e-05
0.0173093 0.00537642 -4.85919e-05
0.0180645 0.0062821 -1.12464e-05
0.0181338 0.00535544 3.12852e-05
0.0192796 0.0063595 2.46256e-05
0.0190492 0.00549012 -4.44854e-05
0.00125542 0.00681353 -2.73404e-05
0.00113141 0.00795894 -3.38667e-05
0.000590463 0.00725975 -4.2113e-05
9.95184e-05 0.00807613 1.49646e-05
0.00189367 0.00742502 7.74856e-06
0.00204527 0.00829832 5.5329e-07
0.00282521 0.00725599 3.67542e-05
0.00291836 0.00819987 1.2865e-05
0.00373735 0.00772291 -4.70278e-05
0.00399017 0.00673786 -1.13161e-05
0.00471219 0.00768226 1.72877e-05
0.00504586 0.00677362 -4.33679e-05
0.00567871 0.00765956 7.98975e-06
0.00645588 0.00722426 -4.89198e-05
0.007031 0.00808629 -1.8846e-05
0.00735259 0.0071956 -2.80691e-05
0.00791325 0.00787637 -4.34141e-05
0.00823302 0.00712374 2.59556e-05
0.00883335 0.00784855 -3.81694e-05
0.00940632 0.00692498 -2.37608e-06
0.00982216 0.00782928 -1.57412e-05
0.0103978 0.00668143 -1.47472e-05
0.0107311 0.00823346 4.979e-05
0.011027 0.00736072 2.22644e-05
0.0117108 0.00820798 -4.55597e-05
0.0120287 0.00729889 -4.5975e-05
0.0128456 0.00785119 4.23607e-05
0.0130108 0.00699184 4.20701e-05
0.0138392 0.00781543 -5.04024e-06
0.0138946 0.00679842 1.64328e-05
0.0148422 0.00792189 -1.6913e-05
0.0148982 0.00691122 -4.21217e-05
0.0158103 0.00811088 -3.94419e-05
0.0159054 0.00713292 -1.21974e-05
0.0166727 0.00770141 -3.70828e-05
0.0174776 0.00715021 -3.33274e-05
0.0181438 0.00805613 -3.83096e-05
0.0184937 0.00717514 -2.02095e-05
0.0191653 0.00778198 -4.84051e-05
0.0197452 0.00712978 -3.46879e-05
0.00158788 0.00914998 2.66777e-05
0.000791468 0.00875828 -3.96098e-06
0.000721073 0.00962899 -1.72888e-05
0.00230717 0.00997615 2.41907e-05
0.00257058 0.00906473 4.87165e-05
0.00321843 0.00972721 7.50784e-06
0.0034674 0.00889115 -7.08428e-06
0.0041805 0.00954441 6.12283e-06
0.00434758 0.00858017 1.74262e-06
0.00515628 0.00943813 -2.81666e-05
0.00534347 0.00853132 -1.04316e-05
0.0061034 0.00937766 9.49774e-06
0.0062234 0.00848903 -4.45245e-05
0.00693455 0.00902748 3.54547e-06
0.00739547 0.00987155 -2.7703e-05
0.00777895 0.00871547 -4.92713e-05
0.0081925 0.00951337 1.26179e-05
0.00869796 0.00879104 4.93873e-05
0.00909168 0.00970422 -4.18982e-05
0.00970893 0.00886133 -9.33208e-06
0.0106619 0.00928845 -3.72943e-05
0.0113664 0.00989206 1.32074e-05
0.0116047 0.0090782 3.24679e-05
0.0122904 0.00975911 -1.82378e-05
0.0125432 0.00875984 4.17083e-05
0.0132073 0.00962395 2.0062e-05
0.0135446 0.00880364 -3.30909e-05
0.0140295 0.00959864 -4.57402e-05
0.0145339 0.00882737 -3.07794e-05
0.0149059 0.00967015 4.85236e-05
0.015483 0.00898087 -3.2558e-05
0.0157995 0.00993988 -4.73944e-05
0.0164551 0.00883791 -2.5672e-05
0.016692 0.00969313 -3.5681e-05
0.0173108 0.00835098 2.81917e-06
0.0174153 0.00923205 -4.5525e-06
0.01831 0.0099314 1.70983e-05
0.0183325 0.00898667 -3.29151e-05
0.019946 0.00908489 -3.41589e-05
0.0191385 0.00955474 4.46827e-05
0.0191388 0.00861119 -3.50995e-05
0.00159897 0.0115947 -2.75196e-05
0.00141471 0.0100975 -3.628e-05
0.000996388 0.0108598 -3.81409e-05
8.90564e-05 0.0110252 4.26166e-05
0.00190671 0.0107562 2.8646e-05
0.00254481 0.0113923 1.79805e-07
0.00296328 0.0105896 -3.0738e-05
0.00351961 0.0113162 1.32908e-05
0.00385939 0.010445 3.19371e-06
0.00448313 0.0112762 -4.05009e-05
0.00487842 0.0103857 2.58338e-05
0.00542343 0.0112347 5.57899e-06
0.005796 0.0102258 3.55182e-05
0.00632719 0.0110332 -2.60959e-05
0.00661083 0.010199 1.90003e-05
0.00725834 0.0108308 2.40728e-05
0.0080402 0.0115382 -1.09524e-05
0.00821716 0.0105098 -2.41459e-05
0.00920004 0.0106625 1.14157e-05
0.00898963 0.011559 -2.28614e-05
0.00996342 0.0100986 7.96265e-06
0.0100478 0.011061 4.36203e-05
0.0107661 0.0104731 4.40746e-05
0.0109674 0.0113625 4.26806e-05
0.0117118 0.0107225 1.59016e-05
0.0126428 0.0106143 -4.05226e-06
0.0131177 0.0112616 -3.49974e-05
0.0135689 0.0104313 -2.12959e-05
0.0139314 0.0112394 -3.47829e-05
0.0144848 0.0103608 -6.10015e-06
0.0148427 0.0112145 -4.9699e-05
0.0158064 0.0110012 -3.49785e-05
0.0165807 0.0105624 -3.04875e-05
0.0166208 0.0115683 2.14731e-05
0.0173142 0.0110703 4.23831e-06
0.0174507 0.0102047 1.54215e-05
0.0182899 0.0109065 -4.02054e-05
0.019075 0.01043 -1.5365e-05
0.019209 0.01131 -1.60515e-05
0.0199311 0.0101229 -4.17269e-05
0.00138355 0.012654 1.39627e-05
0.000679655 0.011801 -9.96495e-06
0.00044362 0.0127302 2.195e-05
0.00225755 0.0123214 1.50647e-05
0.00293714 0.0130599 -2.83946e-05
0.00318262 0.0121452 2.84116e-05
0.00403529 0.0129443 -8.8818e-06
0.00406187 0.012034 -1.71454e-05
0.00493667 0.0130897 4.3363e-05
0.00503489 0.0121542 3.19528e-05
0.005786 0.0129028 -3.24457e-07
0.00605716 0.011962 1.74786e-05
0.00664728 0.0126483 -2.9504e-05
0.00707059 0.0117963 2.61725e-05
0.00756025 0.0127003 -7.28073e-06
0.00854412 0.0124187 2.21972e-05
0.00928469 0.0130093 3.4178e-05
0.00981262 0.0119903 -3.43726e-05
0.0101259 0.0129252 2.4284e-05
0.0107495 0.0122961 4.99362e-05
0.0111441 0.013137 1.79808e-05
0.0119034 0.0117297 3.01021e-05
0.0120611 0.0128001 -4.81269e-05
0.0128123 0.0119904 3.49515e-06
0.0131135 0.0128307 8.09002e-06
0.0137616 0.0121015 -1.27408e-05
0.0142517 0.0129711 1.51186e-05
0.0147202 0.0121958 -2.52694e-05
0.01546 0.0127976 -2.24734e-05
0.0155819 0.01189 -4.84058e-07
0.0163169 0.0124316 2.73575e-05
0.0171315 0.0123298 2.6071e-05
0.017225 0.0131972 -3.7354e-05
0.0178829 0.0118428 -4.54593e-05
0.0179558 0.0127929 -4.8395e-05
0.0186965 0.0130942 7.82155e-06
0.0188459 0.0121958 -1.47463e-05
0.0195374 0.0129237 -3.72359e-05
0.0197835 0.0120501 -4.13942e-05
0.00109772 0.0135729 -4.1589e-05
0.000943567 0.0145446 -1.31753e-05
0.000165075 0.0136118 -1.17246e-06
0.00189278 0.0145656 -5.27218e-06
0.00200315 0.0133428 2.70269e-05
0.00266012 0.0140033 -4.69919e-05
0.00306476 0.0148445 2.49655e-05
0.00359883 0.0138007 2.96183e-05
0.00397341 0.014615 1.43924e-05
0.00458858 0.0139055 -3.62044e-05
0.00520272 0.0145412 2.52958e-05
0.00552984 0.0137741 -4.96651e-05
0.00605924 0.014527 -1.66336e-06
0.00643997 0.0136481 -6.05535e-06
0.0069814 0.0145736 -2.79437e-05
0.00742337 0.013702 1.57621e-06
0.00804028 0.0145645 -3.93501e-06
0.00837422 0.0134463 4.44824e-05
0.00910886 0.0140476 4.05064e-05
0.00975347 0.0147242 -8.94147e-06
0.00894427 0.0149825 -1.15952e-07
0.010073 0.0138487 -3.1985e-05
0.010594 0.014652 2.67646e-06
0.0110078 0.0139548 8.79731e-06
0.0114784 0.0146898 -1.90989e-05
0.0118 0.0137565 1.18363e-05
0.0123161 0.014465 -1.70971e-05
0.0126825 0.013642 2.04004e-05
0.013241 0.0143813 -4.99115e-05
0.0136341 0.0135849 4.34762e-05
0.0141781 0.0146393 2.36495e-05
0.0144789 0.0138163 1.50053e-05
0.0151247 0.0145935 -1.68329e-05
0.0153607 0.0136947 2.59986e-05
0.0161338 0.0144172 -4.8797e-05
0.016271 0.0133869 -2.94781e-05
0.0171441 0.0141678 -3.80464e-05
0.0179985 0.0146261 6.36771e-07
0.0180593 0.0136988 -4.54767e-05
0.0199415 0.0145336 -2.39016e-05
0.0189334 0.0145417 -3.38088e-05
0.0192621 0.0137378 6.46138e-06
0.00143048 0.015398 3.1619e-05
0.00102386 0.0162514 -3.75421e-05
0.000508246 0.0153941 1.65265e-05
0.000135567 0.0162431 3.22872e-05
0.00197856 0.0162624 -2.29225e-05
0.00235701 0.0154158 -4.48401e-05
0.00300558 0.0161905 -1.88293e-05
0.00373923 0.015521 5.22691e-06
0.00398659 0.0163417 -2.84806e-06
0.00463975 0.0152451 3.75063e-05
0.00490903 0.0161972 -2.57249e-06
0.00557349 0.0153355 -3.31627e-05
0.00593006 0.0162181 4.29286e-05
0.00655393 0.0154127 3.83299e-05
0.00691815 0.0162876 8.05502e-06
0.0074763 0.0153712 -1.60873e-07
0.00779693 0.0162824 4.44584e-05
0.00838863 0.0156747 1.77529e-05
0.00919388 0.0160939 1.78253e-05
0.00993359 0.015547 1.34032e-05
0.0100195 0.0163667 -1.78006e-05
0.0107736 0.0163487 3.69213e-05
0.0109382 0.0154952 -2.36735e-05
0.0116294 0.0162675 -3.81553e-05
0.01202 0.0154054 -3.46021e-05
0.0126275 0.0162175 4.68532e-05
0.0130476 0.0153165 -4.47667e-06
0.0136199 0.0163154 -3.82493e-05
0.014003 0.0155211 4.44816e-05
0.014536 0.0162969 2.60965e-05
0.0149191 0.0154789 -1.42244e-05
0.0154545 0.0162596 -2.63927e-05
0.0158549 0.0153997 1.45032e-05
0.0163338 0.0162682 1.42827e-05
0.0168764 0.0152248 8.61202e-06
0.0172546 0.0162313 1.04172e-05
0.0177884 0.0154403 -1.6534e-05
0.0182587 0.016246 1.14277e-05
0.0186597 0.0153945 3.47044e-05
0.0192334 0.0162476 4.63278e-05
0.0195884 0.0154169 -1.23126e-05
VERTICES 400 800
1 0
1 1
1 2
1 3
1 4
1 5
1 6
1 7
1 8
1 9
1 10
1 11
1 12
1 13
1 14
1 15
1 16
1 17
1 18
1 19
1 20
1 21
1 22
1 23
1 24
1 25
1 26
1 27
1 28
1 29
1 30
1 31
1 32
1 33
1 34
1 35
1 36
1 37
1 38
1 39
1 40
1 41
1 42
1 43
1 44
1 45
1 46
1 47
1 48
1 49
1 50
1 51
1 52
1 53
1 54
1 55
1 56
1 57
1 58
1 59
1 60
1 61
1 62
1 63
1 64
1 65
1 66
1 67
1 68
1 69
1 70
1 71
1 72
1 73
1 74
1 75
1 76
1 77
1 78
1 79
1 80
1 81
1 82
1 83
1 84
1 85
1 86
1 87
1 88
1 89
1 90
1 91
1 92
1 93
1 94
1 95
1 96
1 97
1 98
1 99
1 100
1 101
1 102
1 103
1 104
1 105
1 106
1 107
1 108
1 109
1 110
1 111
1 112
1 113
1 114
1 115
1 116
1 117
1 118
1 119
1 120
1 121
1 122
1 123
1 124
1 125
1 126
1 127
1 128
1 129
1 130
1 131
1 132
1 133
1 134
1 135
1 136
1 137
1 138
1 139
1 140
1 141
1 142
1 143
1 144
1 145
1 146
1 147
1 148
1 149
1 150
1 151
1 152
1 153
1 154
1 155
1 156
1 157
1 158
1 159
1 160
1 161
1 162
1 163
1 164
1 165
1 166
1 167
1 168
1 169
1 170
1 171
1 172
1 173
1 174
1 175
1 176
1 177
1 178
1 179
1 180
1 181
1 182
1 183
1 184
1 185
1 186
1 187
1 188
1 189
1 190
1 191
1 192
1 193
1 194
1 195
1 196
1 197
1 198
1 199
1 200
1 201
1 202
1 203
1 204
1 205
1 206
1 207
1 208
1 209
1 210
1 211
1 212
1 213
1 214
1 215
1 216
1 217
1 218
1 219
1 220
1 221
1 222
1 223
1 224
1 225
1 226
1 227
1 228
1 229
1 230
1 231
1 232
1 233
1 234
1 235
1 236
1 237
1 238
1 239
1 240
1 241
1 242
1 243
1 244
1 245
1 246
1 247
1 248
1 249
1 250
1 251
1 252
1 253
1 254
1 255
1 256
1 257
1 258
1 259
1 260
1 261
1 262
1 263
1 264
1 265
1 266
1 267
1 268
1 269
1 270
1 271
1 272
1 273
1 274
1 275
1 276
1 277
1 278
1 279
1 280
1 281
1 282
1 283
1 284
1 285
1 286
1 287
1 288
1 289
1 290
1 291
1 292
1 293
1 294
1 295
1 296
1 297
1 298
1 299
1 300
1 301
1 302
1 303
1 304
1 305
1 306
1 307
1 308
1 309
1 310
1 311
1 312
1 313
1 314
1 315
1 316
1 317
1 318
1 319
1 320
1 321
1 322
1 323
1 324
1 325
1 326
1 327
1 328
1 329
1 330
1 331
1 332
1 333
1 334
1 335
1 336
1 337
1 338
1 339
1 340
1 341
1 342
1 343
1 344
1 345
1 346
1 347
1 348
1 349
1 350
1 351
1 352
1 353
1 354
1 355
1 356
1 357
1 358
1 359
1 360
1 361
1 362
1 363
1 364
1 365
1 366
1 367
1 368
1 369
1 370
1 371
1 372
1 373
1 374
1 375
1 376
1 377
1 378
1 379
1 380
1 381
1 382
1 383
1 384
1 385
1 386
1 387
1 388
1 389
1 390
1 391
1 392
1 393
1 394
1 395
1 396
1 397
1 398
1 399
POINT_DATA 400
VECTORS f float
-1.2706e-08 -1.5342e-08 0.0
7.41428e-09 -1.04824e-08 0.0
6.44813e-08 -4.02652e-08 0.0
-8.01591e-09 -3.06973e-08 0.0
-4.67636e-10 -9.01452e-09 0.0
-1.36018e-08 -8.69171e-09 0.0
-2.74713e-10 -6.05951e-09 0.0
2.70714e-09 -1.04737e-08 0.0
1.16352e-08 5.17429e-09 0.0
5.18551e-09 4.62039e-09 0.0
9.27362e-09 1.51128e-08 0.0
3.46242e-08 4.56103e-08 0.0
2.77693e-08 -7.77754e-09 0.0
6.1738e-09 9.01271e-09 0.0
8.20873e-09 -3.45328e-09 0.0
5.05191e-08 -2.60981e-08 0.0
4.73789e-09 -2.59917e-09 0.0
5.84775e-09 -1.19547e-08 0.0
7.72052e-08 3.15253e-08 0.0
1.25805e-08 -5.17375e-09 0.0
7.88206e-09 3.22904e-09 0.0
-1.18232e-09 -3.10712e-08 0.0
4.61403e-09 2.69242e-09 0.0
-1.43823e-08 -3.47884e-08 0.0
-2.56895e-08 -5.33981e-08 0.0
-9.03397e-09 -1.58461e-08 0.0
-4.90497e-08 4.84006e-09 0.0
-6.72317e-09 1.01919e-09 0.0
-2.03142e-08 1.86214e-08 0.0
-3.39976e-08 1.5999e-08 0.0
5.53782e-08 -2.16658e-08 0.0
-1.98652e-08 5.78047e-09 0.0
5.18848e-09 -5.20568e-08 0.0
-2.68373e-08 -5.51098e-08 0.0
-1.29222e-08 -3.45331e-08 0.0
-3.30935e-08 -7.47537e-08 0.0
-1.82871e-08 -2.5124e-08 0.0
8.32342e-09 -5.97134e-08 0.0
-1.63942e-09 -1.81237e-08 0.0
5.43909e-09 7.76012e-10 0.0
1.65635e-08 -3.57582e-08 0.0
1.0692e-08 -2.83533e-08 0.0
8.60007e-09 3.94666e-09 0.0
-1.68998e-08 -8.85565e-09 0.0
1.47857e-09 -1.6368e-09 0.0
-1.35102e-08 -2.46579e-08 0.0
2.45568e-08 -3.78429e-08 0.0
-1.57395e-08 -2.91533e-08 0.0
8.99969e-08 5.75351e-08 0.0
-5.07327e-09 2.88606e-08 0.0
1.79685e-08 3.21766e-09 0.0
1.64204e-08 6.60979e-09 0.0
4.99083e-09 -2.4007e-08 0.0
1.41887e-08 -9.66583e-09 0.0
1.99841e-08 -1.21095e-08 0.0
2.15907e-09 -3.39128e-08 0.0
7.27024e-08 -3.9257e-08 0.0
-3.60006e-08 -3.37159e-08 0.0
3.98896e-08 1.05656e-08 0.0
4.68038e-08 -2.31264e-08 0.0
4.04958e-08 8.74098e-09 0.0
3.0663e-08 -2.08877e-08 0.0
3.78944e-08 -2.4618e-08 0.0
6.90805e-08 -3.75027e-08 0.0
2.04268e-08 -5.81735e-08 0.0
1.08593e-07 2.96692e-08 0.0
5.87858e-08 6.35249e-08 0.0
1.01643e-07 6.05582e-08 0.0
3.3393e-08 2.96578e-08 0.0
8.33409e-08 2.33596e-08 0.0
5.08078e-08 -4.10112e-08 0.0
1.07904e-07 -2.33852e-08 0.0
6.11171e-08 -3.98998e-08 0.0
5.39393e-08 -5.16549e-08 0.0
1.93674e-08 -6.21636e-08 0.0
3.65587e-08 -5.29987e-08 0.0
2.99745e-08 -6.33959e-08 0.0
1.78481e-08 -4.54709e-08 0.0
7.52303e-09 -3.78794e-08 0.0
2.391e-08 -4.61703e-08 0.0
-3.84595e-08 -9.15626e-08 0.0
2.35371e-08 4.34077e-09 0.0
1.25036e-09 5.66481e-09 0.0
1.5517e-10 -7.23406e-09 0.0
5.07494e-09 3.22526e-08 0.0
1.99402e-08 1.58562e-08 0.0
5.48245e-09 1.10054e-08 0.0
2.87502e-08 -1.02169e-08 0.0
9.16639e-09 -3.21153e-08 0.0
5.07218e-08 -2.48725e-08 0.0
1.17445e-08 1.38858e-08 0.0
5.28258e-08 5.57704e-08 0.0
1.3409e-08 5.09907e-08 0.0
-1.54155e-08 1.60928e-08 0.0
-4.31554e-08 7.59413e-08 0.0
-6.51343e-08 5.01641e-08 0.0
-1.25063e-07 3.63898e-08 0.0
-8.26085e-08 -1.20851e-08 0.0
-6.92602e-08 -4.44816e-08 0.0
-1.58118e-07 -5.96451e-08 0.0
-5.02859e-08 -5.25233e-08 0.0
-5.11315e-08 -4.01683e-09 0.0
-7.53998e-09 -2.36627e-08 0.0
4.71666e-09 -7.52967e-08 0.0
6.11186e-09 -3.70617e-08 0.0
-8.17312e-08 -6.84498e-08 0.0
1.82152e-08 -2.00152e-08 0.0
-3.35196e-08 -4.40418e-09 0.0
7.41865e-08 5.46687e-08 0.0
-4.65998e-10 4.43857e-08 0.0
9.02205e-08 6.99255e-08 0.0
6.09759e-08 5.11043e-08 0.0
9.04599e-08 9.34877e-09 0.0
5.24539e-08 -1.60141e-08 0.0
2.12427e-08 -2.60502e-08 0.0
5.85051e-08 -3.79924e-08 0.0
2.4147e-08 -2.11532e-08 0.0
5.21786e-08 -3.96249e-08 0.0
5.34884e-08 -1.92376e-08 0.0
3.19665e-08 -2.04617e-09 0.0
2.28118e-08 3.90744e-08 0.0
2.80186e-08 1.1354e-08 0.0
-7.61741e-09 1.16549e-08 0.0
-5.95967e-09 2.9068e-08 0.0
6.31287e-09 5.3622e-09 0.0
3.52051e-08 4.23328e-09 0.0
1.02818e-08 -2.83641e-09 0.0
1.09042e-08 -1.0146e-08 0.0
4.75633e-09 -3.30773e-08 0.0
-2.72367e-09 -1.61189e-08 0.0
7.35644e-09 1.85689e-09 0.0
7.11709e-09 8.9676e-11 0.0
-5.19541e-09 5.57351e-08 0.0
2.75297e-08 4.51089e-08 0.0
-1.17357e-08 8.94574e-08 0.0
3.0257e-08 5.76203e-08 0.0
-1.88585e-08 1.65992e-08 0.0
-1.40093e-08 5.95317e-08 0.0
-5.31362e-08 2.15407e-08 0.0
-2.90887e-08 -7.88926e-08 0.0
-7.32797e-08 -1.0707e-07 0.0
-1.35828e-08 8.76632e-08 0.0
-1.21182e-07 -4.47258e-08 0.0
-7.18302e-08 -5.98672e-08 0.0
-5.89962e-08 -2.7362e-08 0.0
-9.36356e-08 -1.60961e-08 0.0
-1.35424e-07 -3.87291e-09 0.0
-7.9634e-08 -1.54472e-08 0.0
1.53842e-08 -7.47224e-09 0.0
-3.43987e-08 -1.83053e-08 0.0
-1.41187e-08 -2.69322e-08 0.0
-9.73943e-09 1.81331e-08 0.0
-2.95094e-09 -1.57305e-08 0.0
-7.31194e-09 5.49889e-09 0.0
-1.05842e-08 -1.76767e-08 0.0
-4.55657e-08 4.14085e-08 0.0
-3.94859e-08 2.56986e-08 0.0
2.05619e-08 2.34767e-09 0.0
4.38368e-08 -4.98151e-09 0.0
1.19518e-08 2.17332e-09 0.0
4.48802e-08 1.51356e-08 0.0
3.40193e-08 -2.21393e-10 0.0
3.35147e-08 -6.4801e-09 0.0
3.59439e-08 -1.09559e-08 0.0
3.28668e-08 -9.89493e-09 0.0
2.25288e-08 -1.24084e-08 0.0
4.42558e-09 -3.43223e-08 0.0
-9.4067e-09 -4.34451e-08 0.0
-1.58241e-08 -6.68421e-08 0.0
-2.22861e-08 -6.13931e-08 0.0
8.65759e-09 1.40697e-09 0.0
5.25322e-08 -1.51793e-08 0.0
3.22458e-08 2.62032e-08 0.0
3.12532e-08 1.69853e-08 0.0
2.25147e-08 3.57078e-08 0.0
1.05203e-07 1.7537e-09 0.0
-1.1158e-08 -1.89433e-08 0.0
7.27257e-08 -3.05072e-09 0.0
1.3479e-08 8.22648e-08 0.0
-2.98525e-09 -1.03689e-07 0.0
2.42936e-07 3.50838e-08 0.0
-1.03873e-09 -4.14301e-08 0.0
2.92139e-08 -4.34504e-08 0.0
-2.41735e-08 1.21315e-08 0.0
-5.72967e-08 -1.32674e-08 0.0
-4.74051e-08 3.33042e-08 0.0
-7.0765e-08 9.14539e-09 0.0
1.02739e-08 2.13675e-08 0.0
-7.76061e-08 7.12331e-09 0.0
4.20366e-08 2.57157e-08 0.0
-4.87988e-09 -6.42164e-09 0.0
1.85658e-08 3.99196e-08 0.0
2.73905e-08 5.34904e-08 0.0
8.99437e-09 2.20361e-08 0.0
1.73439e-08 1.92852e-08 0.0
1.57675e-08 2.39005e-08 0.0
3.19652e-09 2.6989e-08 0.0
5.60959e-08 -2.49903e-08 0.0
2.29997e-08 -5.27271e-09 0.0
4.16925e-08 -1.44964e-08 0.0
3.92899e-08 -1.85629e-08 0.0
4.92695e-08 -1.25669e-08 0.0
2.80978e-08 -5.51406e-10 0.0
2.84695e-08 -3.74514e-09 0.0
3.46636e-08 2.5781e-09 0.0
3.64266e-08 -1.57023e-08 0.0
2.62405e-08 -1.81007e-08 0.0
3.30022e-09 -6.60401e-08 0.0
7.09765e-09 -5.26979e-08 0.0
7.4855e-09 -4.03258e-08 0.0
8.80042e-09 -3.7004e-08 0.0
7.99542e-09 -4.20947e-08 0.0
4.34422e-08 -1.70395e-08 0.0
2.25181e-08 -3.18918e-08 0.0
9.71844e-08 1.88599e-08 0.0
3.35636e-08 5.03347e-08 0.0
8.87658e-08 7.69677e-08 0.0
6.79231e-08 3.60893e-08 0.0
3.4059e-08 3.8962e-08 0.0
1.01983e-09 2.26126e-08 0.0
3.28691e-08 5.93016e-08 0.0
3.57549e-09 4.42003e-08 0.0
1.95149e-08 1.03897e-08 0.0
2.35182e-08 2.34575e-08 0.0
3.06595e-08 2.1192e-08 0.0
4.5202e-08 2.47011e-08 0.0
4.09371e-08 2.5601e-08 0.0
6.17832e-08 3.74838e-08 0.0
6.76253e-08 5.91135e-08 0.0
7.78278e-08 4.54559e-08 0.0
3.69433e-08 3.94021e-08 0.0
9.81467e-09 4.68686e-08 0.0
4.63651e-08 5.48476e-08 0.0
3.42953e-08 1.33729e-08 0.0
3.77352e-08 2.7174e-08 0.0
5.45617e-08 3.50319e-09 0.0
3.47591e-08 2.12387e-09 0.0
2.30316e-08 1.258e-08 0.0
-3.34814e-08 -4.23773e-08 0.0
2.63329e-08 -2.56214e-08 0.0
-8.37302e-09 -4.39668e-08 0.0
-2.02399e-08 -3.18775e-08 0.0
3.76178e-09 -1.8889e-08 0.0
-1.80514e-08 -9.17511e-09 0.0
1.29396e-08 -6.97281e-10 0.0
-2.34868e-10 1.52336e-08 0.0
3.52974e-08 2.03199e-08 0.0
1.8137e-08 2.27687e-08 0.0
4.5761e-08 9.79962e-09 0.0
2.68978e-08 2.53439e-08 0.0
3.00367e-08 -6.73854e-09 0.0
3.5561e-08 2.07877e-08 0.0
1.87198e-08 4.06486e-09 0.0
3.99495e-08 -1.21916e-08 0.0
4.8354e-08 -2.36667e-08 0.0
3.66031e-08 -3.69782e-08 0.0
2.61882e-08 2.71086e-08 0.0
3.75668e-08 8.21086e-09 0.0
1.97516e-08 3.83084e-08 0.0
1.51459e-08 4.12335e-08 0.0
2.50053e-08 4.49312e-08 0.0
2.2154e-08 5.87186e-08 0.0
3.99309e-08 6.14432e-08 0.0
2.87748e-08 4.27106e-08 0.0
3.13355e-08 1.95989e-08 0.0
4.69802e-08 3.55366e-08 0.0
1.85032e-08 1.23031e-08 0.0
3.27925e-08 1.8029e-08 0.0
2.42031e-08 1.01227e-08 0.0
2.77623e-08 2.35852e-08 0.0
4.2677e-08 4.77155e-08 0.0
-1.24525e-08 1.22317e-08 0.0
7.24029e-09 2.40211e-08 0.0
5.21486e-08 5.26014e-08 0.0
-3.81517e-09 -1.8585e-08 0.0
1.23237e-08 -4.19758e-09 0.0
-2.28119e-08 -1.87332e-08 0.0
2.08096e-08 -9.89235e-09 0.0
-3.2697e-08 -3.77698e-08 0.0
-4.65777e-08 -6.63172e-08 0.0
-2.68348e-08 -4.56847e-08 0.0
-4.75073e-08 -1.25136e-08 0.0
-4.59715e-08 2.77488e-08 0.0
-3.08904e-08 1.5185e-08 0.0
-4.31214e-09 4.57083e-08 0.0
-3.94103e-09 2.6017e-08 0.0
4.89379e-09 2.63996e-08 0.0
1.83424e-08 5.02698e-08 0.0
2.11091e-08 5.20596e-08 0.0
3.93684e-08 4.37952e-08 0.0
3.35707e-08 3.06349e-08 0.0
4.75391e-08 1.14439e-08 0.0
8.49971e-08 -2.74199e-08 0.0
1.92535e-08 -4.10065e-08 0.0
2.69089e-10 -1.86691e-08 0.0
3.23359e-08 1.88471e-08 0.0
-1.09873e-08 -2.36573e-08 0.0
2.38091e-08 3.83907e-08 0.0
-1.02525e-08 -3.18098e-09 0.0
1.98457e-08 3.03896e-08 0.0
-5.97341e-09 -1.91674e-08 0.0
7.80491e-09 2.99253e-09 0.0
-1.83356e-08 3.05886e-10 0.0
-5.02807e-09 8.14774e-09 0.0
-2.00289e-08 -7.62486e-09 0.0
-1.41431e-08 -5.90579e-11 0.0
-1.21545e-08 1.35868e-09 0.0
-1.02555e-08 8.56853e-09 0.0
-1.85377e-08 1.13487e-09 0.0
-1.12397e-08 -1.73251e-09 0.0
-1.4607e-09 -2.22385e-08 0.0
-3.34704e-08 -1.24633e-08 0.0
-7.91074e-09 -1.94205e-08 0.0
-8.84157e-09 -1.40932e-08 0.0
-3.43573e-08 -3.01488e-08 0.0
-1.80094e-08 -2.78173e-08 0.0
-3.25127e-08 -3.21423e-08 0.0
-2.76074e-09 -3.32527e-08 0.0
5.46729e-08 -1.59008e-10 0.0
6.90934e-09 -2.42247e-08 0.0
5.4848e-08 4.58579e-08 0.0
-1.81006e-08 2.66294e-09 0.0
9.21047e-09 4.37315e-08 0.0
3.89466e-08 4.41627e-08 0.0
-9.44537e-09 3.22838e-08 0.0
1.11132e-08 3.368e-08 0.0
-2.26524e-10 4.70178e-08 0.0
3.17403e-09 3.13394e-08 0.0
2.86038e-09 4.49398e-08 0.0
1.11624e-08 4.23464e-08 0.0
-1.97415e-09 6.04216e-08 0.0
3.17941e-08 2.54156e-08 0.0
-3.25065e-08 -1.82795e-08 0.0
-3.06572e-08 1.02202e-08 0.0
-4.95143e-08 -8.82787e-08 0.0
-4.53062e-08 -6.86668e-08 0.0
-2.80179e-08 -4.12833e-08 0.0
-5.21168e-09 -2.23159e-08 0.0
-5.77194e-08 -7.9368e-08 0.0
-2.7915e-08 -3.02216e-08 0.0
-1.87707e-08 -2.36166e-08 0.0
-3.72131e-08 -2.88935e-08 0.0
-2.14621e-08 -2.26485e-08 0.0
-2.82068e-08 -1.70375e-08 0.0
-2.26734e-08 -9.5217e-09 0.0
-3.16969e-08 -1.45303e-08 0.0
-1.88651e-08 -8.04229e-09 0.0
-1.03719e-08 -1.26129e-08 0.0
-1.28283e-08 -1.03373e-08 0.0
2.90055e-09 -1.36285e-08 0.0
-8.2e-09 -7.96792e-09 0.0
2.92565e-08 -2.78351e-08 0.0
-4.06279e-09 -1.27477e-08 0.0
4.21138e-08 -3.71403e-08 0.0
4.7805e-08 -2.65126e-08 0.0
1.18631e-08 -3.38801e-08 0.0
8.13769e-08 -1.26413e-09 0.0
7.19288e-08 -7.62413e-09 0.0
2.34429e-08 -1.07735e-08 0.0
3.6277e-08 2.2691e-08 0.0
2.51281e-08 6.76772e-09 0.0
5.75706e-08 9.09135e-09 0.0
2.62682e-08 3.74381e-09 0.0
3.03053e-08 1.99125e-08 0.0
3.80319e-08 3.34826e-08 0.0
3.40199e-08 3.73087e-08 0.0
2.85635e-08 3.79387e-08 0.0
1.38159e-08 2.10686e-08 0.0
2.14617e-08 4.65997e-08 0.0
2.10803e-08 3.52141e-08 0.0
1.73197e-08 3.14533e-08 0.0
1.28665e-08 2.25503e-08 0.0
1.86959e-08 3.46129e-08 0.0
-8.43757e-09 2.27063e-08 0.0
-8.95242e-09 4.74183e-09 0.0
-1.00239e-08 -1.34599e-08 0.0
1.32107e-08 -5.50458e-10 0.0
1.44712e-09 1.55506e-08 0.0
-2.89113e-08 -3.10818e-08 0.0
-2.54816e-09 -8.80744e-09 0.0
-5.58874e-09 -1.00796e-08 0.0
-4.09396e-08 -4.44251e-08 0.0
-9.79958e-09 -1.87175e-08 0.0
-1.83525e-08 -2.0356e-08 0.0
-7.46364e-09 -1.12356e-08 0.0
-1.16825e-08 -7.90617e-09 0.0
4.11761e-11 -3.9981e-09 0.0
-1.30978e-09 -9.90416e-09 0.0
4.35006e-09 -8.02522e-09 0.0
9.34808e-09 -1.05876e-08 0.0
9.68718e-09 -9.78679e-09 0.0
2.93523e-08 -2.09367e-08 0.0
7.77593e-09 -1.46859e-08 0.0
6.13725e-08 -5.29846e-08 0.0
2.46181e-08 -3.09129e-08 0.0
2.82921e-08 -1.60974e-08 0.0
3.43829e-08 -1.66677e-08 0.0
5.02697e-08 -1.15623e-08 0.0
3.07257e-08 -2.05714e-09 0.0
4.67237e-08 1.27932e-09 0.0
VECTORS omega float
-0.0357552 -0.194065 0.0424748
0.113799 0.0665378 -0.0547309
-0.00970623 -0.0510646 -0.00735928
-0.048913 -0.0737778 0.00886922
0.00266102 0.160702 0.0193778
0.0583045 0.0803204 0.0297149
0.00484383 -0.151665 0.0128122
-0.152047 -0.0274502 0.0135201
0.105758 0.0368269 0.0299139
0.00442856 0.160408 0.0020971
-0.00156542 -0.159607 0.0135386
-0.0719947 0.0427665 0.0160127
0.0792054 -0.044655 0.0505771
-0.00179248 0.173614 0.0158751
-0.0019259 -0.156482 0.0142987
0.0373254 -0.026401 0.085207
0.0104472 0.181186 -0.0247537
0.000813454 -0.0400155 -0.0145397
0.0448525 -0.0931591 0.0787113
-0.00835965 0.0366967 0.0102985
0.0342522 -0.0129061 0.0408697
-0.00943977 0.0156767 0.0154797
-0.00337579 -0.0501765 0.0146524
-0.00865221 0.0437422 0.0256233
0.0359059 -0.0199972 0.0131418
-0.00678729 -0.0509978 0.0110778
0.00226628 0.0233318 -0.000765804
-0.0106857 0.0647026 0.032821
-0.0162395 -0.029554 0.0627968
0.0171261 -0.0507577 -0.00786098
-0.0983718 -0.228368 0.0167398
0.00192566 0.0523375 0.0274459
-0.206632 0.202805 0.115533
0.251681 -0.0439607 -0.0405072
0.0679273 -0.0235341 0.113934
-0.00887268 0.0541091 0.00439946
-0.00394201 -0.0582845 0.00445083
0.0575802 -0.0763811 0.115595
-0.0408061 0.019827 0.110209
0.003 0.0619286 0.00148385
-0.151396 1.02016 0.116745
-0.3229 -0.237158 -0.0343298
0.0768922 0.0700875 0.0393325
-0.0503577 -0.0900162 0.0437742
-0.0963078 -0.0828969 0.0153774
0.0746095 0.0944872 0.0119285
-0.0955678 0.0515141 0.068568
0.103909 -0.070971 0.0154148
0.00334736 -0.0781329 0.0846791
-0.0425382 0.0601774 0.00372237
0.109689 -0.0108418 0.0177713
-0.0463029 0.0542342 0.0273728
-0.0775932 -0.00442832 0.0170226
0.0467202 -0.0450012 0.00464805
-0.0622599 0.0560893 0.00651159
0.0650345 0.0711014 0.0184495
-0.0326908 -0.0725972 0.00825147
-0.00110694 0.032786 0.00563056
-0.0570441 0.0771578 -0.014654
0.0515069 -0.0307108 0.0160491
-0.0192639 -0.0627607 0.0133691
-0.0184419 0.0302012 -0.00122136
-0.0209743 0.0604889 0.0304987
0.0507334 -0.0221353 0.00245285
-0.0118907 -0.0572985 0.0472463
0.0222714 0.0238703 -0.0070919
-0.00366086 -0.0475977 0.0794387
-0.0157331 -0.00944507 0.00813184
0.0176989 0.0168184 0.0517073
0.00287355 0.00859358 0.0115157
-0.0210772 -0.00852892 -0.0149893
0.00482962 -0.0101866 0.0611632
0.0128672 0.00950536 0.0937593
-0.0118573 0.0138752 -0.056961
0.156373 -0.265136 0.0272338
-0.0673898 -0.0384033 -0.00620549
-0.0593521 0.234773 -0.0063964
0.143484 -0.165663 0.00506283
0.0578314 -0.246622 0.000668899
-0.0939184 0.15513 0.00920727
-0.0930313 0.25164 -0.0031693
-0.1939 0.0383289 0.00587844
0.261145 0.0848326 0.0639009
0.253926 -0.058225 0.0716806
-0.211913 -0.0689905 -0.00112013
-0.110296 -0.170832 0.00237263
-0.0539837 -0.242448 0.101247