# vtk DataFile Version 2.0
Generated by lpp.py
ASCII
DATASET POLYDATA
POINTS 400 float
0.00132953 0.000444638 3.36586e-05
0.000916291 0.00128418 -1.66342e-05
0.000242462 0.00044346 -3.64628e-05
3.75773e-06 0.00131931 4.93031e-05
0.00183882 0.00128009 5.09221e-06
0.00227014 0.000436093 -1.24497e-05
0.00274496 0.00128817 4.63423e-05
0.00324901 0.000515571 4.67087e-05
0.00374893 0.00129075 -1.5404e-05
0.00460942 0.00119527 -2.0603e-05
0.00417471 0.000417216 3.04549e-05
0.00511839 0.000469519 4.04467e-05
0.00567403 0.00130795 -2.65834e-05
0.00664664 0.00128844 -2.02466e-06
0.00602375 0.000418285 -1.20537e-05
0.0069328 0.000444226 3.91278e-05
0.00824841 0.0011758 -1.82355e-06
0.00779485 0.000364984 3.24564e-05
0.0087667 0.000396975 -3.28708e-05
0.0093099 0.00138682 3.24568e-05
0.00975876 0.000490952 -2.76781e-05
0.0103921 0.00131291 -4.92787e-05
0.0113844 0.00139199 -4.32784e-06
0.010767 0.000444217 -3.96086e-06
0.0117827 0.000485338 -1.32742e-05
0.0124117 0.00132849 1.95463e-05
0.0127839 0.000442021 1.3181e-05
0.0134387 0.00122521 3.75182e-05
0.0136163 0.000329034 1.89547e-05
0.0143594 0.00161792 1.99029e-05
0.0143682 0.000726231 -4.71808e-05
0.0156528 0.00128479 1.72248e-05
0.01523 0.000426171 3.7231e-06
0.0165561 0.00131793 3.54547e-05
0.0161604 0.000503346 -4.85386e-05
0.0178021 0.00133151 -3.92382e-05
0.0171627 0.00053942 -3.8784e-05
0.0182421 0.000485889 3.096e-05
0.0189259 0.00128047 6.72355e-06
0.0192499 0.000429872 -3.72737e-05
0.00091832 0.0023049 5.14548e-06
0.000397595 0.00316122 -4.9345e-05
0.00207987 0.00294961 -3.17454e-05
0.00233125 0.00212151 -1.41959e-06
0.00293601 0.00285188 3.50109e-05
0.00326341 0.00201903 -3.46654e-05
0.00387731 0.0029773 -3.02218e-05
0.00413521 0.00208978 3.70504e-05
0.00499492 0.00300403 3.07542e-05
0.00498229 0.00196003 -2.23732e-05
0.00565315 0.00243786 -2.11247e-06
0.00624691 0.00307323 -3.67063e-05
0.00643189 0.00213298 3.11799e-05
0.00699963 0.00270863 -2.75116e-05
0.00732559 0.00190886 4.80419e-05
0.00773701 0.00291235 1.77683e-05
0.00829554 0.00219776 -3.97226e-05
0.00877474 0.00311786 4.55657e-05
0.00925691 0.00230746 1.80717e-05
0.00981519 0.00312847 -3.93388e-05
0.0101447 0.00222488 2.40231e-05
0.010749 0.00309906 2.716e-05
0.011105 0.00228285 -4.78087e-05
0.0116704 0.00309724 -4.25165e-05
0.0120672 0.00222629 -4.01526e-05
0.0126386 0.0031274 2.94528e-05
0.0131154 0.00223 4.21294e-05
0.0136669 0.00314458 2.4953e-06
0.0141778 0.00241995 2.35941e-05
0.0146441 0.00314054 -2.89305e-05
0.0150906 0.00224117 3.21045e-05
0.0156278 0.00308392 2.08022e-05
0.016015 0.00208823 1.69816e-05
0.0165147 0.00284048 -1.31875e-05
0.0169398 0.00207736 -2.13541e-05
0.0173693 0.00302265 -2.48084e-05
0.0178758 0.0022447 7.17441e-06
0.0184559 0.00302982 -3.11061e-05
0.0188738 0.00221028 -6.697e-06
0.019446 0.00304089 1.88296e-05
0.019864 0.00218103 2.40593e-05
0.00133244 0.00346909 4.11056e-07
0.00155967 0.0043825 -3.43082e-05
0.00053524 0.00405879 4.11872e-05
0.0022686 0.00383493 4.14547e-05
0.00264667 0.00468331 2.79416e-05
0.003152 0.00368899 -1.57031e-06
0.00361961 0.00470206 5.32063e-06
0.00403583 0.00391628 -2.6529e-06
0.00460609 0.00494748 -3.58607e-05
0.00501363 0.00397299 -2.13321e-05
0.00568134 0.00479156 -4.97251e-05
0.00598821 0.00390415 -2.41619e-05
0.00669363 0.00459872 -2.57589e-05
0.00703514 0.00365548 -4.22335e-05
0.00776257 0.00462547 4.30556e-05
0.00797138 0.00368178 4.42331e-05
0.0087881 0.00405792 -4.39636e-05
0.00981361 0.00486661 4.93343e-05
0.00961836 0.00399929 4.05756e-05
0.00872584 0.00490477 -1.72291e-05
0.0104334 0.00388055 -3.72271e-05
0.0107914 0.00466921 4.50596e-05
0.0112933 0.00394086 1.35023e-05
0.0119529 0.00476097 3.81834e-05
0.0121536 0.0038964 3.14585e-06
0.0129236 0.00493123 -2.4127e-05
0.0131453 0.00399677 1.0814e-05
0.0137835 0.00483825 -4.51984e-05
0.0142025 0.00402741 1.00341e-06
0.014728 0.00489012 6.87793e-06
0.0151713 0.00395602 1.87838e-05
0.0160984 0.00415362 4.33922e-05
0.0167962 0.00468939 2.18197e-05
0.0170479 0.00387004 -2.12721e-05
0.0176807 0.00460963 6.56493e-06
0.0179785 0.00377868 9.36883e-06
0.0187158 0.00454068 3.03201e-05
0.0194255 0.00392744 1.43967e-05
0.0197716 0.00479232 -2.66714e-05
0.000813423 0.00500266 1.15215e-05
0.00122274 0.00595335 1.46596e-05
0.0003544 0.00650352 -3.99128e-05
0.000108841 0.00571953 -3.26099e-05
0.00183547 0.00521919 -7.07934e-06
0.0021611 0.00646055 -2.06108e-05
0.00265532 0.00563313 3.54227e-05
0.00315534 0.00641203 -2.96496e-05
0.00360852 0.00562945 1.90715e-05
0.00446778 0.00591306 1.72497e-05
0.00538094 0.00576117 2.50127e-05
0.00597797 0.00650182 -4.27825e-05
0.00631493 0.00553462 2.43943e-05
0.00682097 0.00637494 -3.07296e-05
0.0072256 0.00549589 -2.4969e-05
0.00772804 0.00633455 1.47771e-05
0.00819929 0.00555815 -2.62417e-05
0.00866254 0.00632996 -3.20614e-05
0.00927949 0.00565733 -4.70071e-05
0.0101395 0.00574019 4.476e-05
0.0109546 0.00555046 -5.06646e-06
0.0114105 0.00651451 -4.22073e-05
0.0117815 0.00567244 2.60985e-05
0.0123612 0.00640925 1.83575e-05
0.0125433 0.00560181 -2.28987e-05
0.0132408 0.00609557 2.90979e-05
0.0141788 0.00577226 4.28851e-05
0.015202 0.00589407 -1.46308e-05
0.0156987 0.00502034 -7.56683e-06
0.0160801 0.00623786 -4.83823e-05
0.0165367 0.00551821 2.89194e-05
0.0170239 0.00631677 3.21564e-05
0.017338 0.00537656 -4.85919e-05
0.0181026 0.00628337 -1.12464e-05
0.0181622 0.00535696 3.12852e-05
0.0193183 0.00636294 2.46256e-05
0.0190772 0.00549395 -4.44854e-05
0.0013008 0.00681656 -2.73404e-05
0.00117966 0.00796019 -3.38667e-05
0.000638148 0.00726087 -4.2113e-05
0.000148422 0.0080767 1.49646e-05
0.0019403 0.00742714 7.74856e-06
0.00209435 0.00829998 5.5329e-07
0.00287016 0.00725704 3.67542e-05
0.00296663 0.0082005 1.2865e-05
0.00378336 0.00772349 -4.70278e-05
0.004031 0.00673789 -1.13161e-05
0.00475755 0.00768287 1.72877e-05
0.00508664 0.00677445 -4.33679e-05
0.00572319 0.00765911 7.98975e-06
0.00649771 0.00722422 -4.89198e-05
0.00707852 0.00808584 -1.8846e-05
0.00739487 0.00719485 -2.80691e-05
0.00795986 0.00787399 -4.34141e-05
0.00827453 0.00712081 2.59556e-05
0.00888139 0.00784303 -3.81694e-05
0.00944749 0.00691838 -2.37608e-06
0.00987356 0.00782361 -1.57412e-05
0.0104345 0.00666992 -1.47472e-05
0.0107825 0.00823721 4.979e-05
0.0110446 0.00735824 2.22644e-05
0.0117603 0.00821483 -4.55597e-05
0.012071 0.00730498 -4.5975e-05
0.0128919 0.00785503 4.23607e-05
0.0130527 0.00699548 4.20701e-05
0.013885 0.00781788 -5.04024e-06
0.013936 0.0068012 1.64328e-05
0.0148888 0.00792293 -1.6913e-05
0.0149393 0.00691299 -4.21217e-05
0.0158579 0.0081104 -3.94419e-05
0.0159485 0.0071319 -1.21974e-05
0.0167187 0.00770062 -3.70828e-05
0.0175239 0.00715187 -3.33274e-05
0.0181932 0.00805538 -3.83096e-05
0.0185411 0.00717409 -2.02095e-05
0.0192138 0.0077815 -4.84051e-05
0.0197934 0.00713024 -3.46879e-05
0.0016394 0.00915094 2.66777e-05
0.000842121 0.00875889 -3.96098e-06
0.000773582 0.00962933 -1.72888e-05
0.00236117 0.00997693 2.41907e-05
0.00262178 0.00906565 4.87165e-05
0.00327153 0.00972718 7.50784e-06
0.00351749 0.0088915 -7.08428e-06
0.00423289 0.00954446 6.12283e-06
0.00439602 0.00858054 1.74262e-06
0.00520835 0.00943695 -2.81666e-05
0.00539162 0.00853029 -1.04316e-05
0.00615516 0.00937594 9.49774e-06
0.00627242 0.00848833 -4.45245e-05
0.00698563 0.00902584 3.54547e-06
0.00744933 0.00986808 -2.7703e-05
0.0078297 0.00871277 -4.92713e-05
0.00824541 0.00950997 1.26179e-05
0.00874982 0.00878723 4.93873e-05
0.00914533 0.00970171 -4.18982e-05
0.00976027 0.00885827 -9.33208e-06
0.010712 0.00929064 -3.72943e-05
0.0114191 0.009896 1.32074e-05
0.0116562 0.0090833 3.24679e-05
0.0123432 0.00976324 -1.82378e-05
0.0125936 0.00876411 4.17083e-05
0.0132601 0.00962737 2.0062e-05
0.0135948 0.00880661 -3.30909e-05
0.0140822 0.00960046 -4.57402e-05
0.0145844 0.00882889 -3.07794e-05
0.0149591 0.00967062 4.85236e-05
0.0155342 0.00898087 -3.2558e-05
0.0158533 0.00994014 -4.73944e-05
0.0165061 0.00883643 -2.5672e-05
0.0167456 0.00969281 -3.5681e-05
0.0173597 0.00835073 2.81917e-06
0.0174678 0.00923165 -4.5525e-06
0.0199976 0.00908499 -3.41589e-05
0.0183642 0.00993151 1.70983e-05
0.0183843 0.00898662 -3.29151e-05
0.0191916 0.00955476 4.46827e-05
0.0191894 0.00861097 -3.50995e-05
0.00165864 0.0115951 -2.75196e-05
0.00146868 0.0100983 -3.628e-05
0.00105398 0.0108602 -3.81409e-05
0.000147031 0.0110251 4.26166e-05
0.00196358 0.0107571 2.8646e-05
0.00260397 0.0113926 1.79805e-07
0.00301948 0.0105899 -3.0738e-05
0.00357813 0.0113157 1.32908e-05
0.00391513 0.0104447 3.19371e-06
0.00454141 0.0112751 -4.05009e-05
0.00493387 0.0103844 2.58338e-05
0.00548159 0.0112323 5.57899e-06
0.00585078 0.0102237 3.55182e-05
0.0063845 0.0110302 -2.60959e-05
0.00666591 0.0101963 1.90003e-05
0.00731503 0.0108267 2.40728e-05
0.0081004 0.011537 -1.09524e-05
0.00827261 0.0105064 -2.41459e-05
0.0092556 0.0106612 1.14157e-05
0.00904765 0.0115582 -2.28614e-05
0.0100192 0.0100987 7.96265e-06
0.0101037 0.0110622 4.36203e-05
0.0108213 0.0104762 4.40746e-05
0.0110243 0.0113656 4.26806e-05
0.0117673 0.0107259 1.59016e-05
0.0126982 0.0106176 -4.05226e-06
0.0131759 0.0112638 -3.49974e-05
0.0136245 0.0104335 -2.12959e-05
0.0139901 0.0112403 -3.47829e-05
0.0145404 0.0103617 -6.10015e-06
0.0149019 0.011215 -4.9699e-05
0.0158648 0.0110014 -3.49785e-05
0.0166368 0.0105624 -3.04875e-05
0.0166814 0.0115683 2.14731e-05
0.0173727 0.0110696 4.23831e-06
0.0175057 0.0102041 1.54215e-05
0.0183476 0.0109073 -4.02054e-05
0.0191304 0.0104299 -1.5365e-05
0.0192682 0.01131 -1.60515e-05
0.0199855 0.0101227 -4.17269e-05
0.00144798 0.012654 1.39627e-05
0.000740136 0.0118006 -9.96495e-06
0.000507399 0.0127297 2.195e-05
0.00231946 0.012322 1.50647e-05
0.00300257 0.0130595 -2.83946e-05
0.0032437 0.0121448 2.84116e-05
0.00410035 0.0129436 -8.8818e-06
0.00412251 0.0120332 -1.71454e-05
0.00500198 0.0130873 4.3363e-05
0.00509605 0.012152 3.19528e-05
0.00585015 0.0128999 -3.24457e-07
0.00611764 0.0119588 1.74786e-05
0.00670924 0.0126437 -2.9504e-05
0.00713117 0.0117924 2.61725e-05
0.00762062 0.0126988 -7.28073e-06
0.00860646 0.012419 2.21972e-05
0.00934647 0.0130129 3.4178e-05
0.00986978 0.0119912 -3.43726e-05
0.0101897 0.0129305 2.4284e-05
0.0108082 0.0122985 4.99362e-05
0.011209 0.01314 1.79808e-05
0.0119627 0.0117325 3.01021e-05
0.0121256 0.0128021 -4.81269e-05
0.0128732 0.0119922 3.49515e-06
0.0131778 0.0128318 8.09002e-06
0.0138232 0.0121021 -1.27408e-05
0.0143166 0.0129713 1.51186e-05
0.014782 0.0121962 -2.52694e-05
0.0155245 0.0127984 -2.24734e-05
0.0156429 0.0118901 -4.84058e-07
0.0163799 0.0124312 2.73575e-05
0.0171943 0.0123295 2.6071e-05
0.0172912 0.0131967 -3.7354e-05
0.0179444 0.0118429 -4.54593e-05
0.0180203 0.0127923 -4.8395e-05
0.0187613 0.0130942 7.82155e-06
0.0189084 0.012196 -1.47463e-05
0.0196018 0.0129238 -3.72359e-05
0.0198454 0.0120499 -4.13942e-05
0.00116485 0.0135723 -4.1589e-05
0.00101529 0.0145439 -1.31753e-05
0.000232195 0.0136113 -1.17246e-06
1.30363e-05 0.0145337 -2.39016e-05
0.0019654 0.0145665 -5.27218e-06
0.0020697 0.0133435 2.70269e-05
0.00273032 0.0140038 -4.69919e-05
0.00313809 0.0148444 2.49655e-05
0.00366772 0.0137999 2.96183e-05
0.0040455 0.0146142 1.43924e-05
0.00465805 0.013904 -3.62044e-05
0.00527491 0.0145392 2.52958e-05
0.00560065 0.0137724 -4.96651e-05
0.0061315 0.0145253 -1.66336e-06
0.00651045 0.0136437 -6.05535e-06
0.00705204 0.0145706 -2.79437e-05
0.00749549 0.0137013 1.57621e-06
0.00811229 0.0145649 -3.93501e-06
0.00844616 0.0134486 4.44824e-05
0.00918232 0.0140486 4.05064e-05
0.00982636 0.0147273 -8.94147e-06
0.0090165 0.0149815 -1.15952e-07
0.0101447 0.0138527 -3.1985e-05
0.0106666 0.0146551 2.67646e-06
0.0110781 0.0139579 8.79731e-06
0.0115507 0.0146916 -1.90989e-05
0.0118684 0.0137584 1.18363e-05
0.0123864 0.0144663 -1.70971e-05
0.0127504 0.0136436 2.04004e-05
0.0133114 0.0143823 -4.99115e-05
0.0137017 0.0135856 4.34762e-05
0.0142499 0.0146397 2.36495e-05
0.0145476 0.0138164 1.50053e-05
0.0151964 0.0145938 -1.68329e-05
0.0154292 0.0136952 2.59986e-05
0.0162053 0.0144175 -4.8797e-05
0.0163381 0.0133866 -2.94781e-05
0.0172146 0.0141678 -3.80464e-05
0.0180702 0.0146261 6.36771e-07
0.0181269 0.0136983 -4.54767e-05
0.0190051 0.0145422 -3.38088e-05
0.0193302 0.0137382 6.46138e-06
0.00150509 0.0153982 3.1619e-05
0.00110196 0.0162518 -3.75421e-05
0.000582878 0.0153935 1.65265e-05
0.000213328 0.0162431 3.22872e-05
0.00205682 0.0162628 -2.29225e-05
0.00243204 0.015416 -4.48401e-05
0.00308344 0.0161904 -1.88293e-05
0.00381464 0.0155206 5.22691e-06
0.00406472 0.0163411 -2.84806e-06
0.00471436 0.0152437 3.75063e-05
0.00498559 0.0161965 -2.57249e-06
0.0056481 0.0153343 -3.31627e-05
0.00600731 0.0162177 4.29286e-05
0.00662924 0.0154122 3.83299e-05
0.00699639 0.016287 8.05502e-06
0.00754785 0.015367 -1.60873e-07
0.00787555 0.0162829 4.44584e-05
0.00846366 0.015674 1.77529e-05
0.00926974 0.0160936 1.78253e-05
0.010009 0.0155495 1.34032e-05
0.0100977 0.016368 -1.78006e-05
0.0108523 0.0163494 3.69213e-05
0.0110138 0.0154968 -2.36735e-05
0.0117082 0.016268 -3.81553e-05
0.0120958 0.0154058 -3.46021e-05
0.0127061 0.0162183 4.68532e-05
0.0131228 0.0153179 -4.47667e-06
0.0136982 0.0163161 -3.82493e-05
0.0140786 0.0155215 4.44816e-05
0.014614 0.0162972 2.60965e-05
0.0149941 0.0154791 -1.42244e-05
0.0155322 0.0162593 -2.63927e-05
0.0159295 0.0153997 1.45032e-05
0.0164122 0.0162683 1.42827e-05
0.0169506 0.015225 8.61202e-06
0.0173324 0.0162318 1.04172e-05
0.017863 0.0154408 -1.6534e-05
0.0183365 0.0162463 1.14277e-05
0.0187341 0.0153946 3.47044e-05
0.0193112 0.0162476 4.63278e-05
0.0196634 0.015417 -1.23126e-05
VERTICES 400 800
1 0
1 1
1 2
1 3
1 4
1 5
1 6
1 7
1 8
1 9
1 10
1 11
1 12
1 13
1 14
1 15
1 16
1 17
1 18
1 19
1 20
1 21
1 22
1 23
1 24
1 25
1 26
1 27
1 28
1 29
1 30
1 31
1 32
1 33
1 34
1 35
1 36
1 37
1 38
1 39
1 40
1 41
1 42
1 43
1 44
1 45
1 46
1 47
1 48
1 49
1 50
1 51
1 52
1 53
1 54
1 55
1 56
1 57
1 58
1 59
1 60
1 61
1 62
1 63
1 64
1 65
1 66
1 67
1 68
1 69
1 70
1 71
1 72
1 73
1 74
1 75
1 76
1 77
1 78
1 79
1 80
1 81
1 82
1 83
1 84
1 85
1 86
1 87
1 88
1 89
1 90
1 91
1 92
1 93
1 94
1 95
1 96
1 97
1 98
1 99
1 100
1 101
1 102
1 103
1 104
1 105
1 106
1 107
1 108
1 109
1 110
1 111
1 112
1 113
1 114
1 115
1 116
1 117
1 118
1 119
1 120
1 121
1 122
1 123
1 124
1 125
1 126
1 127
1 128
1 129
1 130
1 131
1 132
1 133
1 134
1 135
1 136
1 137
1 138
1 139
1 140
1 141
1 142
1 143
1 144
1 145
1 146
1 147
1 148
1 149
1 150
1 151
1 152
1 153
1 154
1 155
1 156
1 157
1 158
1 159
1 160
1 161
1 162
1 163
1 164
1 165
1 166
1 167
1 168
1 169
1 170
1 171
1 172
1 173
1 174
1 175
1 176
1 177
1 178
1 179
1 180
1 181
1 182
1 183
1 184
1 185
1 186
1 187
1 188
1 189
1 190
1 191
1 192
1 193
1 194
1 195
1 196
1 197
1 198
1 199
1 200
1 201
1 202
1 203
1 204
1 205
1 206
1 207
1 208
1 209
1 210
1 211
1 212
1 213
1 214
1 215
1 216
1 217
1 218
1 219
1 220
1 221
1 222
1 223
1 224
1 225
1 226
1 227
1 228
1 229
1 230
1 231
1 232
1 233
1 234
1 235
1 236
1 237
1 238
1 239
1 240
1 241
1 242
1 243
1 244
1 245
1 246
1 247
1 248
1 249
1 250
1 251
1 252
1 253
1 254
1 255
1 256
1 257
1 258
1 259
1 260
1 261
1 262
1 263
1 264
1 265
1 266
1 267
1 268
1 269
1 270
1 271
1 272
1 273
1 274
1 275
1 276
1 277
1 278
1 279
1 280
1 281
1 282
1 283
1 284
1 285
1 286
1 287
1 288
1 289
1 290
1 291
1 292
1 293
1 294
1 295
1 296
1 297
1 298
1 299
1 300
1 301
1 302
1 303
1 304
1 305
1 306
1 307
1 308
1 309
1 310
1 311
1 312
1 313
1 314
1 315
1 316
1 317
1 318
1 319
1 320
1 321
1 322
1 323
1 324
1 325
1 326
1 327
1 328
1 329
1 330
1 331
1 332
1 333
1 334
1 335
1 336
1 337
1 338
1 339
1 340
1 341
1 342
1 343
1 344
1 345
1 346
1 347
1 348
1 349
1 350
1 351
1 352
1 353
1 354
1 355
1 356
1 357
1 358
1 359
1 360
1 361
1 362
1 363
1 364
1 365
1 366
1 367
1 368
1 369
1 370
1 371
1 372
1 373
1 374
1 375
1 376
1 377
1 378
1 379
1 380
1 381
1 382
1 383
1 384
1 385
1 386
1 387
1 388
1 389
1 390
1 391
1 392
1 393
1 394
1 395
1 396
1 397
1 398
1 399
POINT_DATA 400
VECTORS f float
-8.40819e-08 -4.37703e-08 0.0
-2.44431e-07 -3.4906e-08 0.0
-4.8684e-09 -1.67647e-08 0.0
-3.0531e-07 -1.30901e-07 0.0
-1.93824e-07 -1.38298e-07 0.0
-7.76077e-08 -5.21765e-08 0.0
-1.57215e-07 -4.70812e-08 0.0
-9.53296e-08 -2.85307e-08 0.0
-1.35212e-07 3.71435e-09 0.0
-9.32439e-08 -2.36755e-09 0.0
-5.88626e-08 2.33053e-09 0.0
-4.1656e-08 1.57688e-08 0.0
-1.43896e-07 3.70563e-08 0.0
-9.06302e-08 -1.00945e-08 0.0
-3.21735e-08 7.83979e-09 0.0
-2.71686e-08 8.99437e-09 0.0
-7.30307e-08 1.01817e-07 0.0
-7.54913e-09 1.53859e-08 0.0
-1.05247e-08 3.65778e-08 0.0
-4.91555e-08 1.27507e-07 0.0
-5.12536e-08 5.69122e-08 0.0
-1.69086e-07 4.40916e-08 0.0
-1.71746e-07 6.29737e-08 0.0
-2.85687e-08 3.25089e-08 0.0
-8.50075e-08 3.78824e-08 0.0
-1.78103e-07 7.00259e-08 0.0
-5.43919e-08 2.87544e-08 0.0
-1.61919e-07 5.44964e-08 0.0
-3.05722e-08 1.86575e-08 0.0
-1.79155e-07 6.04713e-08 0.0
-6.37121e-08 3.96419e-08 0.0
-4.88213e-08 -1.19334e-08 0.0
-2.02797e-08 1.9172e-08 0.0
-1.58434e-07 -5.15475e-08 0.0
-2.00975e-08 -7.07166e-08 0.0
-2.07507e-07 8.61488e-09 0.0
-3.58179e-08 -5.27559e-08 0.0
-2.18278e-08 1.66666e-08 0.0
-2.36697e-07 -6.88659e-09 0.0
-2.17361e-09 1.89857e-08 0.0
-5.73734e-07 -1.92661e-08 0.0
-6.06261e-07 -1.29104e-07 0.0
-5.28679e-07 -1.85576e-07 0.0
-4.20372e-07 -1.74687e-07 0.0
-4.15051e-07 -9.49891e-08 0.0
-2.67909e-07 -1.52402e-08 0.0
-8.13386e-07 -8.50193e-08 0.0
-2.48912e-07 1.05256e-08 0.0
-4.09463e-07 -2.60167e-07 0.0
-2.20169e-07 1.26582e-08 0.0
-1.60325e-07 -5.95442e-08 0.0
-3.50095e-07 -1.05736e-07 0.0
-1.94931e-07 -8.13026e-08 0.0
-1.52541e-07 -4.37322e-08 0.0
-1.08591e-07 -6.56069e-08 0.0
-2.20933e-07 3.65242e-08 0.0
-3.16039e-07 2.04586e-07 0.0
-3.98019e-07 2.02773e-07 0.0
-1.89363e-07 1.06448e-07 0.0
-4.55911e-07 1.5245e-07 0.0
-2.57653e-07 7.72998e-08 0.0
-3.34033e-07 9.06207e-08 0.0
-2.88859e-07 5.77834e-08 0.0
-4.56504e-07 5.57536e-08 0.0
-2.80037e-07 4.86141e-08 0.0
-5.2376e-07 -2.41207e-08 0.0
-4.29743e-07 4.13563e-08 0.0
-5.52999e-07 -1.27025e-08 0.0
-2.51871e-07 1.15093e-08 0.0
-5.05364e-07 5.45048e-08 0.0
-3.20908e-07 8.04256e-08 0.0
-5.62601e-07 1.89025e-07 0.0
-2.72862e-07 9.63924e-08 0.0
-3.99014e-07 8.32735e-08 0.0
-3.69763e-07 4.46186e-09 0.0
-4.63267e-07 -1.87956e-08 0.0
-6.27424e-07 4.01358e-08 0.0
-5.29943e-07 -1.18569e-08 0.0
-5.97794e-07 -3.92017e-08 0.0
-7.60025e-07 -1.05566e-07 0.0
-6.6453e-07 -1.8144e-07 0.0
-9.20504e-07 -2.25434e-07 0.0
-4.90182e-07 -8.29292e-08 0.0
-5.50177e-07 -1.28221e-07 0.0
-6.28678e-07 -1.86786e-07 0.0
-7.08527e-07 -8.46124e-08 0.0
-5.59166e-07 -9.1511e-08 0.0
-7.20409e-07 -1.14758e-07 0.0
-7.7883e-07 -9.57846e-08 0.0
-1.12692e-06 -2.44201e-07 0.0
-9.93538e-07 -2.86448e-07 0.0
-1.16307e-06 -2.28107e-07 0.0
-5.05551e-07 -1.11784e-07 0.0
-9.6645e-07 -2.13548e-08 0.0
-5.4518e-07 1.61787e-08 0.0
-1.18207e-06 1.58321e-07 0.0
-4.67858e-07 9.0415e-08 0.0
-5.46855e-07 2.10543e-07 0.0
-6.88677e-07 2.10799e-07 0.0
-3.80945e-07 1.0526e-07 0.0
-7.17391e-07 1.95214e-07 0.0
-2.86606e-07 8.34401e-08 0.0
-6.78935e-07 1.10383e-07 0.0
-3.01135e-07 9.24427e-08 0.0
-7.46867e-07 -1.07525e-07 0.0
-3.28323e-07 -1.86808e-09 0.0
-7.77255e-07 -6.29418e-08 0.0
-8.23737e-07 -5.94488e-08 0.0
-5.77273e-07 -2.73426e-08 0.0
-7.88327e-07 -7.49879e-09 0.0
-8.27836e-07 -2.99725e-08 0.0
-7.02636e-07 7.75472e-08 0.0
-6.83876e-07 2.24323e-08 0.0
-5.47011e-07 -6.40376e-09 0.0
-6.66996e-07 -3.74918e-08 0.0
-5.83699e-07 -8.12494e-09 0.0
-7.50211e-07 -1.92349e-08 0.0
-1.20697e-06 -9.47914e-08 0.0
-5.42264e-07 -5.24552e-08 0.0
-9.94529e-07 -1.07096e-07 0.0
-1.21726e-06 -1.7113e-07 0.0
-6.56822e-07 -6.81988e-08 0.0
-4.23601e-07 -6.21331e-08 0.0
-7.99645e-07 -9.53729e-08 0.0
-7.92177e-07 -1.21288e-07 0.0
-9.26766e-07 -1.9228e-08 0.0
-8.20184e-07 -5.42669e-08 0.0
-6.01411e-07 -5.08856e-08 0.0
-1.057e-06 -1.54628e-07 0.0
-6.54105e-07 -1.1661e-07 0.0
-1.20066e-06 -1.84212e-07 0.0
-5.82131e-07 -2.85091e-08 0.0
-5.86368e-07 -3.51631e-08 0.0
-8.66522e-07 9.98706e-08 0.0
-9.60586e-07 1.13726e-07 0.0
-1.0141e-06 1.88075e-07 0.0
-7.87758e-07 1.447e-07 0.0
-1.02619e-06 2.47286e-07 0.0
-9.31503e-07 1.847e-07 0.0
-8.54262e-07 2.00069e-07 0.0
-8.72546e-07 1.31985e-07 0.0
-1.07961e-06 -1.2173e-08 0.0
-8.57164e-07 -9.18186e-08 0.0
-9.48767e-07 -9.35793e-08 0.0
-5.50105e-07 -6.4584e-08 0.0
-9.48847e-07 -1.48145e-07 0.0
-1.38083e-06 -1.64501e-07 0.0
-1.11059e-06 -6.05913e-08 0.0
-7.48764e-07 6.17739e-09 0.0
-8.93404e-07 -5.68663e-08 0.0
-7.81884e-07 4.51367e-09 0.0
-5.69174e-07 -1.87742e-08 0.0
-5.1149e-07 3.27668e-08 0.0
-1.04081e-06 -4.75272e-08 0.0
-7.52769e-07 -2.87698e-08 0.0
-5.17079e-07 -1.06545e-07 0.0
-7.42834e-07 -7.11356e-08 0.0
-4.65854e-07 -2.0518e-08 0.0
-8.20783e-07 -3.8275e-08 0.0
-4.46354e-07 -4.74036e-08 0.0
-8.95533e-07 -9.2465e-08 0.0
-6.80263e-07 -4.86679e-09 0.0
-5.08727e-07 1.09524e-08 0.0
-9.02509e-07 -4.26579e-08 0.0
-5.99342e-07 7.62887e-09 0.0
-8.46972e-07 9.15483e-09 0.0
-9.15819e-07 -9.86357e-08 0.0
-8.12176e-07 -2.78709e-08 0.0
-1.35446e-06 -1.54426e-07 0.0
-9.81826e-07 -2.647e-08 0.0
-9.18189e-07 6.29186e-08 0.0
-1.01384e-06 3.56337e-07 0.0
-8.00124e-07 1.82309e-07 0.0
-5.15465e-07 1.472e-07 0.0
-7.14134e-07 1.81416e-07 0.0
-1.13978e-06 3.53564e-07 0.0
-1.33838e-06 3.9101e-07 0.0
-1.0488e-06 2.89861e-07 0.0
-1.38039e-06 2.46654e-07 0.0
-1.25929e-06 1.814e-07 0.0
-5.58912e-07 4.54384e-08 0.0
-9.9539e-07 6.74953e-09 0.0
-1.20421e-06 -7.69381e-08 0.0
-7.90026e-07 -8.93819e-08 0.0
-7.14929e-07 -9.92871e-08 0.0
-1.23108e-06 -1.62662e-07 0.0
-8.96058e-07 -1.249e-07 0.0
-8.58645e-07 -1.10282e-07 0.0
-1.36271e-06 -1.25638e-07 0.0
-9.04257e-07 -1.09338e-07 0.0
-9.63787e-07 -7.74084e-08 0.0
-8.9999e-07 -1.18679e-07 0.0
-9.77738e-07 -8.75841e-08 0.0
-6.172e-07 -8.00693e-08 0.0
-9.12424e-07 -7.25589e-08 0.0
-5.69867e-07 -8.40218e-08 0.0
-6.4113e-07 -8.41214e-08 0.0
-7.54939e-07 -1.01873e-10 0.0
-3.64021e-07 -2.65501e-08 0.0
-5.76539e-07 -3.89712e-08 0.0
-6.01683e-07 4.36765e-08 0.0
-6.812e-07 2.59496e-08 0.0
-4.41289e-07 3.43189e-08 0.0
-5.02051e-07 3.05005e-08 0.0
-6.83453e-07 8.01174e-08 0.0
-1.10639e-06 6.25163e-08 0.0
-5.62354e-07 9.0929e-08 0.0
-8.5416e-07 2.83243e-08 0.0
-6.94947e-07 1.95899e-07 0.0
-4.48936e-07 1.03485e-07 0.0
-6.57687e-07 2.34747e-07 0.0
-7.4397e-07 3.99292e-07 0.0
-6.03139e-07 2.48774e-07 0.0
-6.30612e-07 3.24121e-07 0.0
-8.10877e-07 3.31747e-07 0.0
-8.08697e-07 4.1165e-07 0.0
-1.25837e-06 4.50696e-07 0.0
-9.17293e-07 2.02942e-07 0.0
-4.87374e-07 4.87015e-08 0.0
-5.80368e-07 2.80989e-08 0.0
-8.82509e-07 -4.6399e-08 0.0
-1.11745e-06 -9.86847e-08 0.0
-3.81166e-07 -3.99483e-08 0.0
-8.67721e-07 -1.07323e-07 0.0
-4.45093e-07 -6.62731e-08 0.0
-8.28362e-07 -1.14828e-07 0.0
-4.95186e-07 -8.28314e-08 0.0
-7.18247e-07 -1.05293e-07 0.0
-7.40185e-07 -1.21676e-07 0.0
-7.21776e-07 -1.44181e-07 0.0
-3.92134e-07 -8.90205e-08 0.0
-5.60288e-07 -7.65971e-08 0.0
-5.94187e-07 -1.16638e-07 0.0
-8.38353e-07 -8.61668e-08 0.0
-5.28904e-07 -8.36686e-08 0.0
-6.88145e-07 -9.7588e-08 0.0
-5.74382e-07 -7.51848e-08 0.0
-4.82067e-07 -6.85291e-08 0.0
-4.54109e-07 1.25891e-08 0.0
-4.20506e-07 2.74022e-09 0.0
-3.85303e-07 7.6667e-09 0.0
-3.7446e-07 -3.95331e-08 0.0
-3.13704e-07 1.53926e-08 0.0
-5.38375e-07 6.36792e-08 0.0
-3.86027e-07 4.65865e-08 0.0
-4.07915e-07 6.77033e-08 0.0
-7.37702e-07 1.11351e-07 0.0
-4.84974e-07 1.3018e-07 0.0
-8.6284e-07 1.92068e-07 0.0
-4.50915e-07 1.72986e-07 0.0
-5.17969e-07 1.89154e-07 0.0
-5.4608e-07 3.01821e-07 0.0
-4.01674e-07 2.31652e-07 0.0
-5.54276e-07 3.40627e-07 0.0
-3.51932e-07 5.24479e-07 0.0
-7.88452e-07 5.13085e-07 0.0
-5.8034e-07 4.29336e-07 0.0
-3.44743e-07 4.92278e-07 0.0
-5.84168e-07 2.59797e-07 0.0
-4.54683e-07 2.74913e-07 0.0
-4.26716e-07 1.18536e-07 0.0
-3.65788e-07 1.22823e-07 0.0
-5.19287e-07 -2.96883e-09 0.0
-3.80566e-07 -3.54315e-08 0.0
-2.43156e-07 -4.03694e-08 0.0
-6.42161e-07 -9.47562e-08 0.0
-2.09338e-07 -6.726e-08 0.0
-4.02941e-07 -9.04334e-08 0.0
-4.47925e-07 -1.53488e-07 0.0
-3.75746e-07 -1.17229e-07 0.0
-4.68929e-07 -1.19951e-07 0.0
-3.30777e-07 -1.17205e-07 0.0
-2.64586e-07 -9.53635e-08 0.0
-5.81998e-07 -1.50559e-07 0.0
-4.83426e-07 -4.70287e-08 0.0
-3.84326e-07 -4.81237e-08 0.0
-3.87782e-07 -4.13996e-08 0.0
-5.29312e-07 -6.77593e-08 0.0
-2.91448e-07 2.46276e-08 0.0
-4.61911e-07 -1.50162e-08 0.0
-2.96095e-07 -1.04341e-08 0.0
-4.14311e-07 6.20043e-08 0.0
-4.21674e-07 8.67935e-08 0.0
-3.99602e-07 5.9635e-08 0.0
-4.1698e-07 1.77819e-07 0.0
-3.82951e-07 1.10559e-07 0.0
-2.21577e-07 1.43467e-07 0.0
-6.16393e-07 2.69662e-07 0.0
-3.53918e-07 2.36816e-07 0.0
-5.50201e-07 2.72319e-07 0.0
-3.28301e-07 1.58064e-07 0.0
-5.64049e-07 4.03964e-07 0.0
-6.86343e-07 5.07434e-07 0.0
-5.27718e-07 7.77483e-07 0.0
-1.58322e-07 3.48302e-07 0.0
-1.93781e-07 2.47311e-07 0.0
-1.24879e-07 3.50301e-08 0.0
-2.50675e-07 1.03775e-07 0.0
-5.75249e-08 1.32813e-08 0.0
-3.24548e-07 -4.83375e-08 0.0
-1.63786e-07 -6.93337e-08 0.0
-1.65959e-07 -4.24593e-08 0.0
-1.51405e-07 -7.23506e-08 0.0
-2.83321e-07 -1.0266e-07 0.0
-1.06759e-07 -6.08731e-08 0.0
-2.79444e-07 -1.20075e-07 0.0
-1.76709e-07 -6.56876e-08 0.0
-2.96308e-07 -1.16638e-07 0.0
-2.69007e-07 -1.17973e-07 0.0
-1.75537e-07 -6.68773e-08 0.0
-1.99042e-07 -8.95542e-08 0.0
-5.09312e-07 -1.18351e-07 0.0
-1.87622e-07 -6.45754e-08 0.0
-1.64718e-07 -2.87432e-08 0.0
-3.9543e-07 -3.7902e-08 0.0
-2.82629e-07 -1.18338e-08 0.0
-2.89831e-07 -1.79974e-08 0.0
-2.80422e-07 4.24009e-09 0.0
-1.76011e-07 -1.4694e-09 0.0
-2.10189e-07 -8.76939e-09 0.0
-2.20261e-07 1.2915e-08 0.0
-2.12792e-07 4.79928e-08 0.0
-2.0414e-07 4.83411e-08 0.0
-2.51462e-07 8.97948e-08 0.0
-2.15531e-07 7.94857e-08 0.0
-2.83941e-07 1.13849e-07 0.0
-1.90427e-07 1.05223e-07 0.0
-2.91938e-07 2.00706e-07 0.0
-1.59298e-07 1.05348e-07 0.0
-1.67743e-07 1.59099e-07 0.0
-1.92936e-07 8.93545e-08 0.0
-1.95677e-07 1.5609e-07 0.0
-2.86075e-07 1.01375e-07 0.0
-1.07564e-07 4.81033e-07 0.0
-1.74154e-07 4.54109e-07 0.0
-1.65603e-07 7.36746e-07 0.0
7.10474e-08 2.27646e-07 0.0
8.931e-08 5.41474e-08 0.0
8.95237e-08 1.45519e-07 0.0
-6.506e-09 5.73799e-08 0.0
4.47446e-08 -5.90728e-09 0.0
9.75137e-09 -1.36175e-08 0.0
3.4601e-08 -2.62822e-08 0.0
-1.73197e-08 -3.41485e-08 0.0
-3.37315e-09 -3.68548e-08 0.0
-3.19794e-08 -4.41726e-08 0.0
-4.35768e-08 -4.24037e-08 0.0
-3.55912e-08 -3.21966e-08 0.0
-3.39335e-08 -2.09005e-08 0.0
-4.709e-08 -2.12867e-08 0.0
-4.27001e-08 -1.62674e-08 0.0
-1.09721e-07 -4.11925e-08 0.0
-1.18725e-07 -6.84694e-08 0.0
-2.60084e-07 -1.39187e-07 0.0
-1.68398e-07 -9.93018e-08 0.0
-1.15645e-07 -5.78773e-08 0.0
-2.11102e-07 -8.89918e-08 0.0
-1.64568e-07 -1.41243e-08 0.0
-1.52238e-07 8.78334e-11 0.0
-1.24609e-07 1.60121e-08 0.0
-5.9279e-08 2.85793e-08 0.0
-1.21377e-07 6.91284e-09 0.0
-5.34681e-08 6.3491e-09 0.0
-9.06591e-08 3.74018e-08 0.0
-1.66351e-07 3.19366e-08 0.0
-1.33669e-07 3.7272e-08 0.0
-1.62532e-07 7.63397e-08 0.0
-6.01726e-08 2.50247e-08 0.0
-2.09816e-07 1.35124e-07 0.0
-1.0079e-07 7.7153e-08 0.0
-1.89175e-07 1.29758e-07 0.0
-1.00196e-07 1.03111e-07 0.0
-1.82045e-07 -5.26089e-09 0.0
-2.72177e-08 -3.54493e-08 0.0
-4.47526e-08 3.20913e-07 0.0
2.72014e-08 -6.31551e-09 0.0
1.07263e-07 5.94654e-08 0.0
1.05889e-07 -1.93407e-08 0.0
1.37467e-07 2.65319e-08 0.0
3.75268e-08 2.70582e-09 0.0
2.81397e-08 7.44263e-09 0.0
9.19347e-08 5.7535e-09 0.0
3.10978e-08 -1.84567e-09 0.0
3.74341e-08 -1.38068e-08 0.0
2.94196e-08 -9.37253e-09 0.0
-2.85247e-09 -2.65407e-08 0.0
8.8895e-09 -8.23547e-10 0.0
-7.1232e-09 -1.2298e-08 0.0
2.08244e-09 2.23286e-10 0.0
-1.42487e-08 -3.79524e-09 0.0
6.57683e-10 -3.46479e-09 0.0
-3.10236e-08 -3.17914e-08 0.0
-7.78071e-09 -3.88857e-09 0.0
-7.67902e-08 -8.03956e-08 0.0
-3.1347e-08 -1.75495e-08 0.0
-4.03188e-08 -1.42781e-08 0.0
-5.31189e-08 -5.09031e-09 0.0
-9.13994e-08 -1.15552e-08 0.0
-5.77945e-08 -1.50132e-09 0.0
-7.59763e-08 1.2507e-09 0.0
VECTORS omega float
-0.0239624 -0.266368 0.0163107
0.165179 -0.0114285 -0.0134941
0.00696003 0.197962 0.0130163
-0.0859007 0.0098391 0.0574759
-0.11769 0.00243465 -0.00710226
0.000340365 0.224047 0.0122726
0.132318 0.00447269 0.0128063
-0.0036052 -0.209362 0.00611073
-0.150161 -0.0451037 0.0149752
0.171557 0.0552997 0.0119001
0.00304328 0.245017 -0.00385285
0.00143036 -0.268636 0.00944422
-0.144777 0.0390203 0.011188
0.111667 -0.0524093 0.00780292
0.0102519 0.317483 -0.00152142
0.0050108 -0.304912 0.00923161
0.0308484 -0.286481 0.00421837
-0.0165302 0.383692 -0.00164503
-0.00268265 0.296555 -0.00183831
-0.0923554 0.435021 0.00520087
0.00721428 -0.264033 0.00945466
-0.16986 0.083903 0.0113609
0.0447998 -0.0998643 0.00024684
0.0085371 0.290654 -0.00131874
0.0432355 -0.237002 0.00823276
-0.154303 0.120965 0.00186914
0.00205857 0.292185 0.00710717
0.0826488 -0.131298 -0.00461477
0.00338406 -0.362355 0.0105428
0.206284 0.294062 0.0444855
-0.197851 0.200169 0.012912
-0.044531 -0.087417 0.0412284
-0.0125213 -0.137017 -0.006855
0.119067 0.0485111 0.049095
-0.00953121 0.164672 0.000399114
-0.162651 0.0325606 0.0500148
0.00632074 -0.162853 -0.000906985
0.009273 0.186133 -0.00275661
0.12824 -0.0589308 0.0617874
-0.00955273 -0.219321 -0.0070743
-0.176604 0.217643 0.0480712
-0.101648 0.286455 -0.00238424
0.0720482 -0.0300987 0.0199532
-0.00662998 -0.19495 0.0294937
-0.136681 0.0544448 0.00308261
0.0244003 0.203412 0.00769172
0.103963 -0.061123 0.0428879
-0.0158077 -0.190513 0.00620314
-0.287131 1.03296 0.0611381
-0.0370659 0.169148 -0.0150812
-0.421038 -0.481624 -0.00248393
-0.205975 -0.215992 0.0570728
-0.258744 0.693134 -0.00296101
0.964457 -0.0414554 -0.00794288
-0.658466 -0.431442 0.0117226
-0.210308 0.186635 0.0160704
-0.0471327 0.168725 0.0220997
0.0898919 -0.0679353 0.00975973
0.0942202 -0.239372 0.00235488
-0.216586 0.0663895 0.0120459
0.110805 0.214421 -0.00411221
-0.040817 -0.0974647 -0.00664893
0.114887 -0.209246 0.00672421
-0.184649 0.120086 0.0120191
0.0458823 0.198011 -0.00812659
0.154815 -0.168295 0.000885074
0.0219891 -0.171408 0.0235137
-0.0197485 0.185768 0.00570811
-0.423176 0.445363 -0.00366219
0.429614 -0.271136 0.0148206
-0.19162 -0.306578 -0.000555638
0.131805 0.246014 0.00652919
0.115354 0.367346 0.026261
-0.0496033 -0.353576 -0.017385
0.0772782 0.310817 0.0115599
-0.283657 0.352556 0.0105543
0.151541 -0.212986 0.0027045
-0.107612 0.302295 -0.0110543
-0.145962 0.226926 -0.00713608
0.101509 -0.258961 0.0110224
0.122972 -0.221176 0.00580356
0.25526 -0.197454 -0.00472431