# vtk DataFile Version 2.0
Generated by lpp.py
ASCII
DATASET POLYDATA
POINTS 400 float
0.00132983 0.000444713 3.36586e-05
0.000916794 0.00128419 -1.66342e-05
0.000242613 0.000443436 -3.64628e-05
4.38878e-06 0.00131948 4.93031e-05
0.00183926 0.00128014 5.09221e-06
0.0022704 0.000436124 -1.24497e-05
0.00274534 0.00128825 4.63423e-05
0.00324921 0.000515582 4.67087e-05
0.00374916 0.00129083 -1.5404e-05
0.00460967 0.00119523 -2.0603e-05
0.00417479 0.000417179 3.04549e-05
0.00511853 0.000469515 4.04467e-05
0.00567437 0.00130796 -2.65834e-05
0.00664708 0.00128831 -2.02466e-06
0.00602387 0.000418234 -1.20537e-05
0.00693287 0.000444126 3.91278e-05
0.0082488 0.00117578 -1.82355e-06
0.00779484 0.000365034 3.24564e-05
0.00876669 0.000396871 -3.28708e-05
0.00931043 0.00138692 3.24568e-05
0.00975887 0.000490962 -2.76781e-05
0.0103926 0.00131306 -4.92787e-05
0.0113849 0.00139199 -4.32784e-06
0.0107672 0.00044428 -3.96086e-06
0.0117829 0.000485338 -1.32742e-05
0.0124121 0.00132845 1.95463e-05
0.0127842 0.000441993 1.3181e-05
0.0134392 0.00122516 3.75182e-05
0.0136165 0.000328989 1.89547e-05
0.01436 0.00161786 1.99029e-05
0.0143685 0.00072621 -4.71808e-05
0.0156535 0.0012847 1.72248e-05
0.0152303 0.000426117 3.7231e-06
0.0165566 0.0013181 3.54547e-05
0.0161606 0.000503254 -4.85386e-05
0.0178026 0.0013315 -3.92382e-05
0.0171628 0.000539477 -3.8784e-05
0.0182422 0.000485882 3.096e-05
0.0189264 0.00128049 6.72355e-06
0.01925 0.00042988 -3.72737e-05
0.000918786 0.0023048 5.14548e-06
0.000398454 0.00316143 -4.9345e-05
0.00208052 0.00294965 -3.17454e-05
0.00233193 0.00212164 -1.41959e-06
0.00293657 0.00285205 3.50109e-05
0.00326408 0.00201915 -3.46654e-05
0.00387792 0.00297733 -3.02218e-05
0.00413585 0.00208991 3.70504e-05
0.004996 0.00300408 3.07542e-05
0.00498283 0.00195995 -2.23732e-05
0.00565395 0.00243772 -2.11247e-06
0.00624787 0.00307318 -3.67063e-05
0.00643276 0.00213298 3.11799e-05
0.00700053 0.00270867 -2.75116e-05
0.00732628 0.0019087 4.80419e-05
0.00773801 0.0029123 1.77683e-05
0.00829633 0.00219768 -3.97226e-05
0.00877554 0.0031178 4.55657e-05
0.00925772 0.00230746 1.80717e-05
0.00981599 0.0031285 -3.93388e-05
0.0101455 0.00222505 2.40231e-05
0.0107497 0.00309896 2.716e-05
0.0111057 0.00228281 -4.78087e-05
0.0116712 0.00309716 -4.25165e-05
0.0120679 0.00222628 -4.01526e-05
0.0126394 0.00312743 2.94528e-05
0.0131161 0.00222995 4.21294e-05
0.0136679 0.00314457 2.4953e-06
0.0141787 0.00241994 2.35941e-05
0.0146451 0.00314056 -2.89305e-05
0.0150914 0.0022412 3.21045e-05
0.0156286 0.00308392 2.08022e-05
0.0160158 0.00208803 1.69816e-05
0.0165154 0.00284047 -1.31875e-05
0.0169406 0.00207753 -2.13541e-05
0.0173702 0.0030226 -2.48084e-05
0.0178767 0.00224462 7.17441e-06
0.0184567 0.00302984 -3.11061e-05
0.0188746 0.00221036 -6.697e-06
0.0194468 0.00304096 1.88296e-05
0.0198647 0.00218117 2.40593e-05
0.00133332 0.00346924 4.11056e-07
0.00156102 0.00438266 -3.43082e-05
0.000536451 0.00405906 4.11872e-05
0.00226954 0.00383488 4.14547e-05
0.00264791 0.00468322 2.79416e-05
0.00315295 0.00368911 -1.57031e-06
0.00362109 0.00470226 5.32063e-06
0.00403693 0.00391631 -2.6529e-06
0.00460758 0.0049474 -3.58607e-05
0.00501488 0.00397294 -2.13321e-05
0.00568278 0.00479145 -4.97251e-05
0.00598935 0.00390403 -2.41619e-05
0.00669494 0.00459866 -2.57589e-05
0.00703637 0.00365549 -4.22335e-05
0.00776387 0.00462541 4.30556e-05
0.00797245 0.00368172 4.42331e-05
0.00878905 0.00405783 -4.39636e-05
0.00981484 0.00486634 4.93343e-05
0.00961916 0.00399915 4.05756e-05
0.00872732 0.0049046 -1.72291e-05
0.0104343 0.00388053 -3.72271e-05
0.010793 0.0046691 4.50596e-05
0.0112942 0.00394062 1.35023e-05
0.0119542 0.00476124 3.81834e-05
0.0121545 0.0038965 3.14585e-06
0.012925 0.0049313 -2.4127e-05
0.0131463 0.0039968 1.0814e-05
0.0137848 0.00483824 -4.51984e-05
0.0142036 0.00402741 1.00341e-06
0.0147293 0.00489013 6.87793e-06
0.0151724 0.00395605 1.87838e-05
0.0160997 0.00415363 4.33922e-05
0.0167976 0.00468931 2.18197e-05
0.017049 0.00387003 -2.12721e-05
0.0176821 0.0046096 6.56493e-06
0.0179797 0.00377867 9.36883e-06
0.0187172 0.0045408 3.03201e-05
0.0194268 0.00392757 1.43967e-05
0.019773 0.00479259 -2.66714e-05
0.000814853 0.00500279 1.15215e-05
0.00122478 0.00595355 1.46596e-05
0.00035672 0.00650361 -3.99128e-05
0.000110601 0.00571986 -3.26099e-05
0.00183702 0.00521925 -7.07934e-06
0.00216315 0.00646064 -2.06108e-05
0.00265709 0.00563316 3.54227e-05
0.00315734 0.00641206 -2.96496e-05
0.00361029 0.00562952 1.90715e-05
0.00446959 0.00591303 1.72497e-05
0.00538269 0.00576105 2.50127e-05
0.00597999 0.00650169 -4.27825e-05
0.00631657 0.00553456 2.43943e-05
0.00682295 0.00637491 -3.07296e-05
0.00722728 0.00549591 -2.4969e-05
0.00772999 0.00633446 1.47771e-05
0.00820101 0.00555802 -2.62417e-05
0.00866444 0.00632983 -3.20614e-05
0.00928129 0.00565721 -4.70071e-05
0.0101414 0.00573974 4.476e-05
0.0109565 0.00555031 -5.06646e-06
0.0114124 0.0065147 -4.22073e-05
0.0117833 0.00567275 2.60985e-05
0.0123631 0.00640946 1.83575e-05
0.012545 0.00560198 -2.28987e-05
0.0132426 0.00609559 2.90979e-05
0.0141804 0.00577231 4.28851e-05
0.0152036 0.00589415 -1.46308e-05
0.0156999 0.00502029 -7.56683e-06
0.0160818 0.00623755 -4.83823e-05
0.0165381 0.00551794 2.89194e-05
0.0170175 0.0063217 3.21564e-05
0.0173394 0.00537655 -4.85919e-05
0.0181045 0.00628339 -1.12464e-05
0.0181635 0.00535699 3.12852e-05
0.0193202 0.00636316 2.46256e-05
0.0190785 0.00549418 -4.44854e-05
0.00130305 0.00681676 -2.73404e-05
0.00118218 0.00796027 -3.38667e-05
0.000640622 0.00726098 -4.2113e-05
0.000150996 0.00807675 1.49646e-05
0.00194268 0.00742725 7.74856e-06
0.00209693 0.00830007 5.5329e-07
0.00287241 0.00725704 3.67542e-05
0.00296916 0.00820049 1.2865e-05
0.00378571 0.00772344 -4.70278e-05
0.00403308 0.00673785 -1.13161e-05
0.00475987 0.00768277 1.72877e-05
0.00508873 0.00677434 -4.33679e-05
0.00572546 0.00765895 7.98975e-06
0.00649983 0.00722413 -4.89198e-05
0.00708101 0.0080858 -1.8846e-05
0.00739705 0.0071948 -2.80691e-05
0.00796227 0.00787386 -4.34141e-05
0.00827666 0.00712066 2.59556e-05
0.00888383 0.00784278 -3.81694e-05
0.00944959 0.00691812 -2.37608e-06
0.00987608 0.00782335 -1.57412e-05
0.0104365 0.00666966 -1.47472e-05
0.010785 0.00823719 4.979e-05
0.0110467 0.00735813 2.22644e-05
0.0117629 0.008215 -4.55597e-05
0.0120733 0.00730518 -4.5975e-05
0.0128943 0.00785515 4.23607e-05
0.0130548 0.00699556 4.20701e-05
0.0138873 0.00781799 -5.04024e-06
0.0139382 0.00680134 1.64328e-05
0.0148912 0.00792295 -1.6913e-05
0.0149415 0.00691313 -4.21217e-05
0.0158604 0.00811023 -3.94419e-05
0.0159509 0.00713165 -1.21974e-05
0.0167212 0.0077005 -3.70828e-05
0.0175263 0.00715194 -3.33274e-05
0.0181958 0.00805529 -3.83096e-05
0.0185436 0.00717398 -2.02095e-05
0.0192163 0.00778147 -4.84051e-05
0.0197959 0.00713028 -3.46879e-05
0.00164218 0.009151 2.66777e-05
0.000844843 0.00875893 -3.96098e-06
0.000776443 0.00962935 -1.72888e-05
4.14963e-07 0.009085 -3.41589e-05
0.00236415 0.00997696 2.41907e-05
0.00262455 0.00906567 4.87165e-05
0.00327444 0.00972714 7.50784e-06
0.00352018 0.00889146 -7.08428e-06
0.00423573 0.00954438 6.12283e-06
0.00439858 0.00858046 1.74262e-06
0.00521117 0.00943679 -2.81666e-05
0.00539416 0.00853013 -1.04316e-05
0.00615795 0.00937578 9.49774e-06
0.00627502 0.00848822 -4.45245e-05
0.00698836 0.00902573 3.54547e-06
0.00745227 0.00986787 -2.7703e-05
0.00783238 0.00871263 -4.92713e-05
0.00824828 0.0095098 1.26179e-05
0.00875253 0.00878704 4.93873e-05
0.00914824 0.00970157 -4.18982e-05
0.00976296 0.00885806 -9.33208e-06
0.0107147 0.00929066 -3.72943e-05
0.0114219 0.00989615 1.32074e-05
0.0116588 0.00908348 3.24679e-05
0.012346 0.00976337 -1.82378e-05
0.0125962 0.00876424 4.17083e-05
0.013263 0.00962748 2.0062e-05
0.0135974 0.0088067 -3.30909e-05
0.014085 0.00960051 -4.57402e-05
0.014587 0.00882891 -3.07794e-05
0.0149619 0.00967057 4.85236e-05
0.015537 0.00898076 -3.2558e-05
0.0158563 0.00994006 -4.73944e-05
0.0165088 0.00883622 -2.5672e-05
0.0167485 0.00969271 -3.5681e-05
0.0173622 0.00835068 2.81917e-06
0.0174706 0.00923158 -4.5525e-06
0.0183672 0.00993149 1.70983e-05
0.0183872 0.00898659 -3.29151e-05
0.0191945 0.00955475 4.46827e-05
0.0191921 0.00861095 -3.50995e-05
0.00166203 0.0115951 -2.75196e-05
0.00147166 0.0100984 -3.628e-05
0.00105723 0.0108602 -3.81409e-05
0.000150296 0.011025 4.26166e-05
0.00196677 0.0107571 2.8646e-05
0.00260733 0.0113926 1.79805e-07
0.00302261 0.0105899 -3.0738e-05
0.00358144 0.0113157 1.32908e-05
0.00391821 0.0104446 3.19371e-06
0.00454469 0.011275 -4.05009e-05
0.00493693 0.0103843 2.58338e-05
0.00548485 0.0112321 5.57899e-06
0.00585377 0.0102235 3.55182e-05
0.00638768 0.01103 -2.60959e-05
0.00666892 0.0101961 1.90003e-05
0.00731815 0.0108265 2.40728e-05
0.00810382 0.0115369 -1.09524e-05
0.00827561 0.0105062 -2.41459e-05
0.00925865 0.0106611 1.14157e-05
0.0090509 0.0115582 -2.28614e-05
0.0100223 0.0100987 7.96265e-06
0.0101068 0.0110623 4.36203e-05
0.0108243 0.0104763 4.40746e-05
0.0110274 0.0113658 4.26806e-05
0.0117704 0.010726 1.59016e-05
0.0127012 0.0106178 -4.05226e-06
0.0131792 0.0112638 -3.49974e-05
0.0136275 0.0104336 -2.12959e-05
0.0139934 0.0112402 -3.47829e-05
0.0145434 0.0103617 -6.10015e-06
0.0149053 0.0112149 -4.9699e-05
0.015868 0.0110014 -3.49785e-05
0.0166399 0.0105623 -3.04875e-05
0.0166848 0.0115682 2.14731e-05
0.0173759 0.0110695 4.23831e-06
0.0175087 0.010204 1.54215e-05
0.0183508 0.0109074 -4.02054e-05
0.0191335 0.0104299 -1.5365e-05
0.0192716 0.01131 -1.60515e-05
0.0199885 0.0101227 -4.17269e-05
0.00145174 0.012654 1.39627e-05
0.000743591 0.0118006 -9.96495e-06
0.000511107 0.0127296 2.195e-05
0.00232303 0.012322 1.50647e-05
0.00300641 0.0130595 -2.83946e-05
0.00324721 0.0121447 2.84116e-05
0.00410418 0.0129435 -8.8818e-06
0.00412598 0.0120331 -1.71454e-05
0.00500584 0.0130872 4.3363e-05
0.00509957 0.0121519 3.19528e-05
0.00585394 0.0128997 -3.24457e-07
0.00612108 0.0119585 1.74786e-05
0.0067128 0.0126433 -2.9504e-05
0.00713462 0.0117921 2.61725e-05
0.00762406 0.0126987 -7.28073e-06
0.00861005 0.012419 2.21972e-05
0.00935007 0.0130132 3.4178e-05
0.00987299 0.0119912 -3.43726e-05
0.0101934 0.0129309 2.4284e-05
0.0108115 0.0122986 4.99362e-05
0.0112128 0.0131402 1.79808e-05
0.0119661 0.0117326 3.01021e-05
0.0121294 0.0128022 -4.81269e-05
0.0128767 0.0119923 3.49515e-06
0.0131816 0.0128318 8.09002e-06
0.0138267 0.0121021 -1.27408e-05
0.0143204 0.0129713 1.51186e-05
0.0147855 0.0121961 -2.52694e-05
0.0155282 0.0127984 -2.24734e-05
0.0156464 0.0118901 -4.84058e-07
0.0163835 0.0124311 2.73575e-05
0.0171979 0.0123294 2.6071e-05
0.0172951 0.0131967 -3.7354e-05
0.0179479 0.0118429 -4.54593e-05
0.018024 0.0127922 -4.8395e-05
0.0187651 0.0130942 7.82155e-06
0.0189119 0.012196 -1.47463e-05
0.0196055 0.0129238 -3.72359e-05
0.019849 0.0120499 -4.13942e-05
0.00116883 0.0135723 -4.1589e-05
0.00101962 0.0145438 -1.31753e-05
0.000236166 0.0136113 -1.17246e-06
1.73539e-05 0.0145336 -2.39016e-05
0.0019698 0.0145665 -5.27218e-06
0.00207363 0.0133435 2.70269e-05
0.00273453 0.0140038 -4.69919e-05
0.00314255 0.0148444 2.49655e-05
0.00367183 0.0137999 2.96183e-05
0.00404986 0.0146142 1.43924e-05
0.00466218 0.0139039 -3.62044e-05
0.00527927 0.0145391 2.52958e-05
0.00560481 0.0137722 -4.96651e-05
0.00613586 0.0145251 -1.66336e-06
0.00651465 0.0136433 -6.05535e-06
0.00705629 0.0145704 -2.79437e-05
0.00749982 0.0137013 1.57621e-06
0.00811663 0.0145649 -3.93501e-06
0.00845047 0.0134488 4.44824e-05
0.00918674 0.0140487 4.05064e-05
0.00983077 0.0147275 -8.94147e-06
0.00902086 0.0149814 -1.15952e-07
0.010149 0.013853 -3.1985e-05
0.010671 0.0146554 2.67646e-06
0.0110823 0.0139581 8.79731e-06
0.0115551 0.0146917 -1.90989e-05
0.0118724 0.0137586 1.18363e-05
0.0123906 0.0144664 -1.70971e-05
0.0127544 0.0136437 2.04004e-05
0.0133157 0.0143824 -4.99115e-05
0.0137057 0.0135856 4.34762e-05
0.0142542 0.0146397 2.36495e-05
0.0145517 0.0138164 1.50053e-05
0.0152007 0.0145937 -1.68329e-05
0.0154333 0.0136952 2.59986e-05
0.0162096 0.0144175 -4.8797e-05
0.0163421 0.0133865 -2.94781e-05
0.0172189 0.0141678 -3.80464e-05
0.0180745 0.014626 6.36771e-07
0.0181309 0.0136982 -4.54767e-05
0.0190094 0.0145422 -3.38088e-05
0.0193342 0.0137383 6.46138e-06
0.00150966 0.0153982 3.1619e-05
0.0011068 0.0162518 -3.75421e-05
0.000587445 0.0153935 1.65265e-05
0.000218146 0.0162431 3.22872e-05
0.00206168 0.0162629 -2.29225e-05
0.00243663 0.015416 -4.48401e-05
0.00308827 0.0161904 -1.88293e-05
0.00381927 0.0155205 5.22691e-06
0.00406956 0.016341 -2.84806e-06
0.00471891 0.0152436 3.75063e-05
0.00499031 0.0161965 -2.57249e-06
0.00565265 0.0153343 -3.31627e-05
0.00601209 0.0162177 4.29286e-05
0.00663383 0.0154122 3.83299e-05
0.00700124 0.0162869 8.05502e-06
0.00755219 0.0153667 -1.60873e-07
0.00788044 0.0162829 4.44584e-05
0.00846827 0.015674 1.77529e-05
0.00927441 0.0160936 1.78253e-05
0.0100137 0.0155496 1.34032e-05
0.0101026 0.0163681 -1.78006e-05
0.0108572 0.0163494 3.69213e-05
0.0110184 0.0154969 -2.36735e-05
0.0117131 0.016268 -3.81553e-05
0.0121005 0.0154058 -3.46021e-05
0.012711 0.0162184 4.68532e-05
0.0131274 0.015318 -4.47667e-06
0.0137031 0.0163161 -3.82493e-05
0.0140832 0.0155216 4.44816e-05
0.0146188 0.0162972 2.60965e-05
0.0149987 0.0154791 -1.42244e-05
0.015537 0.0162592 -2.63927e-05
0.0159341 0.0153996 1.45032e-05
0.0164171 0.0162683 1.42827e-05
0.0169551 0.015225 8.61202e-06
0.0173373 0.0162319 1.04172e-05
0.0178676 0.0154408 -1.6534e-05
0.0183413 0.0162463 1.14277e-05
0.0187387 0.0153946 3.47044e-05
0.019316 0.0162476 4.63278e-05
0.0196679 0.015417 -1.23126e-05
VERTICES 400 800
1 0
1 1
1 2
1 3
1 4
1 5
1 6
1 7
1 8
1 9
1 10
1 11
1 12
1 13
1 14
1 15
1 16
1 17
1 18
1 19
1 20
1 21
1 22
1 23
1 24
1 25
1 26
1 27
1 28
1 29
1 30
1 31
1 32
1 33
1 34
1 35
1 36
1 37
1 38
1 39
1 40
1 41
1 42
1 43
1 44
1 45
1 46
1 47
1 48
1 49
1 50
1 51
1 52
1 53
1 54
1 55
1 56
1 57
1 58
1 59
1 60
1 61
1 62
1 63
1 64
1 65
1 66
1 67
1 68
1 69
1 70
1 71
1 72
1 73
1 74
1 75
1 76
1 77
1 78
1 79
1 80
1 81
1 82
1 83
1 84
1 85
1 86
1 87
1 88
1 89
1 90
1 91
1 92
1 93
1 94
1 95
1 96
1 97
1 98
1 99
1 100
1 101
1 102
1 103
1 104
1 105
1 106
1 107
1 108
1 109
1 110
1 111
1 112
1 113
1 114
1 115
1 116
1 117
1 118
1 119
1 120
1 121
1 122
1 123
1 124
1 125
1 126
1 127
1 128
1 129
1 130
1 131
1 132
1 133
1 134
1 135
1 136
1 137
1 138
1 139
1 140
1 141
1 142
1 143
1 144
1 145
1 146
1 147
1 148
1 149
1 150
1 151
1 152
1 153
1 154
1 155
1 156
1 157
1 158
1 159
1 160
1 161
1 162
1 163
1 164
1 165
1 166
1 167
1 168
1 169
1 170
1 171
1 172
1 173
1 174
1 175
1 176
1 177
1 178
1 179
1 180
1 181
1 182
1 183
1 184
1 185
1 186
1 187
1 188
1 189
1 190
1 191
1 192
1 193
1 194
1 195
1 196
1 197
1 198
1 199
1 200
1 201
1 202
1 203
1 204
1 205
1 206
1 207
1 208
1 209
1 210
1 211
1 212
1 213
1 214
1 215
1 216
1 217
1 218
1 219
1 220
1 221
1 222
1 223
1 224
1 225
1 226
1 227
1 228
1 229
1 230
1 231
1 232
1 233
1 234
1 235
1 236
1 237
1 238
1 239
1 240
1 241
1 242
1 243
1 244
1 245
1 246
1 247
1 248
1 249
1 250
1 251
1 252
1 253
1 254
1 255
1 256
1 257
1 258
1 259
1 260
1 261
1 262
1 263
1 264
1 265
1 266
1 267
1 268
1 269
1 270
1 271
1 272
1 273
1 274
1 275
1 276
1 277
1 278
1 279
1 280
1 281
1 282
1 283
1 284
1 285
1 286
1 287
1 288
1 289
1 290
1 291
1 292
1 293
1 294
1 295
1 296
1 297
1 298
1 299
1 300
1 301
1 302
1 303
1 304
1 305
1 306
1 307
1 308
1 309
1 310
1 311
1 312
1 313
1 314
1 315
1 316
1 317
1 318
1 319
1 320
1 321
1 322
1 323
1 324
1 325
1 326
1 327
1 328
1 329
1 330
1 331
1 332
1 333
1 334
1 335
1 336
1 337
1 338
1 339
1 340
1 341
1 342
1 343
1 344
1 345
1 346
1 347
1 348
1 349
1 350
1 351
1 352
1 353
1 354
1 355
1 356
1 357
1 358
1 359
1 360
1 361
1 362
1 363
1 364
1 365
1 366
1 367
1 368
1 369
1 370
1 371
1 372
1 373
1 374
1 375
1 376
1 377
1 378
1 379
1 380
1 381
1 382
1 383
1 384
1 385
1 386
1 387
1 388
1 389
1 390
1 391
1 392
1 393
1 394
1 395
1 396
1 397
1 398
1 399
POINT_DATA 400
VECTORS f float
4.59823e-07 2.32139e-08 0.0
2.67678e-06 -9.98342e-08 0.0
-4.64425e-08 -1.94106e-08 0.0
-2.88798e-07 -1.22962e-07 0.0
3.97343e-08 6.92017e-08 0.0
-1.28936e-07 1.40583e-07 0.0
2.06965e-08 -7.01071e-08 0.0
4.00056e-08 5.15819e-07 0.0
-6.80585e-07 -4.38295e-07 0.0
4.10081e-09 2.23497e-08 0.0
-1.02927e-07 -6.78106e-07 0.0
-1.87067e-09 -4.34444e-08 0.0
-7.97158e-08 -5.03747e-09 0.0
5.62271e-07 -5.47332e-07 0.0
3.0767e-08 -3.4586e-08 0.0
-2.16331e-08 6.91324e-08 0.0
-4.30425e-08 -8.51492e-10 0.0
1.69116e-08 -1.42293e-08 0.0
-1.41019e-08 9.6523e-10 0.0
1.40549e-08 1.08157e-08 0.0
-3.96467e-08 -1.45699e-07 0.0
5.87054e-09 -2.98621e-08 0.0
-1.05029e-08 1.53143e-07 0.0
-3.26955e-09 1.16053e-07 0.0
-1.72991e-08 4.10182e-08 0.0
-1.48748e-08 -1.53437e-07 0.0
-8.54014e-09 -6.77724e-09 0.0
2.56127e-08 -2.63842e-08 0.0
-1.83198e-08 2.72177e-09 0.0
-6.59438e-08 3.81221e-08 0.0
-4.30412e-08 -5.16709e-08 0.0
9.43045e-08 1.26735e-07 0.0
7.77365e-08 -2.56698e-08 0.0
-7.1014e-08 -2.32319e-08 0.0
-1.67306e-07 -9.89974e-08 0.0
-4.25984e-08 5.43098e-08 0.0
1.70495e-09 9.84514e-08 0.0
-5.89741e-07 2.71167e-07 0.0
4.57063e-07 -3.46537e-07 0.0
-6.60249e-08 -1.40146e-08 0.0
-2.60235e-06 1.46666e-08 0.0
3.99441e-09 -5.05095e-08 0.0
1.65566e-07 1.08113e-07 0.0
1.44069e-07 -7.57796e-07 0.0
-4.49689e-07 2.04129e-06 0.0
7.50182e-07 4.38177e-07 0.0
2.41635e-07 -1.33095e-06 0.0
-8.84781e-08 -9.25334e-08 0.0
-1.76863e-08 -5.07299e-08 0.0
7.24309e-08 6.62978e-08 0.0
-1.86953e-08 4.50185e-08 0.0
6.36047e-09 -5.80841e-08 0.0
-2.21714e-08 3.1237e-07 0.0
9.24915e-08 -9.09331e-08 0.0
-5.09322e-07 4.94169e-08 0.0
-1.12356e-07 5.19012e-08 0.0
1.20512e-07 1.35146e-07 0.0
-5.31124e-07 -4.59819e-07 0.0
5.61708e-07 -2.97402e-07 0.0
-3.99296e-07 -1.72633e-07 0.0
-1.37856e-07 1.88698e-06 0.0
2.51294e-08 5.43528e-08 0.0
-4.41858e-07 -1.41124e-06 0.0
7.17853e-07 -4.59516e-07 0.0
1.0041e-07 6.91569e-07 0.0
1.97532e-08 -9.67594e-09 0.0
-4.64855e-07 -4.90898e-07 0.0
3.90137e-07 -1.81319e-07 0.0
1.6933e-08 1.2322e-09 0.0
3.58237e-08 3.59795e-08 0.0
3.97993e-07 2.22558e-06 0.0
-4.70876e-08 -1.2922e-07 0.0
-3.2868e-07 -2.2579e-06 0.0
4.91884e-08 -6.8081e-09 0.0
-3.84354e-07 2.26705e-06 0.0
-3.12108e-08 4.74173e-08 0.0
4.8728e-07 -2.35139e-06 0.0
-2.30291e-08 9.71108e-10 0.0
9.70281e-08 9.1455e-07 0.0
1.93069e-08 -3.57734e-08 0.0
2.58323e-07 -7.56728e-07 0.0
-1.94693e-08 -1.77605e-07 0.0
-3.92759e-08 6.76835e-08 0.0
-3.85497e-08 2.9556e-08 0.0
-2.15671e-08 1.0894e-07 0.0
-6.51805e-08 2.06617e-07 0.0
-9.10482e-09 1.23482e-08 0.0
-3.55217e-07 1.26255e-06 0.0
-4.01906e-09 -2.58501e-08 0.0
2.80507e-07 -1.38149e-06 0.0
8.82316e-08 4.87094e-08 0.0
-3.22342e-09 -4.54132e-08 0.0
1.33931e-07 -1.61607e-08 0.0
-1.59159e-06 -5.63845e-07 0.0
1.5535e-06 1.01735e-06 0.0
2.63582e-08 -2.33331e-09 0.0
5.7718e-07 1.82183e-07 0.0
-6.75783e-08 -3.85847e-08 0.0
-1.46292e-08 6.64327e-09 0.0
-3.77674e-08 6.52614e-08 0.0
-3.37672e-08 -5.05188e-08 0.0
4.26744e-08 -3.31694e-07 0.0
-1.79987e-08 -1.3323e-08 0.0
-1.49772e-07 -1.9473e-07 0.0
-2.22998e-08 -3.79646e-08 0.0
1.07803e-09 7.02278e-07 0.0
1.24483e-08 4.47408e-08 0.0
1.87817e-08 -4.66056e-08 0.0
6.87584e-08 -1.04184e-06 0.0
8.1075e-07 -4.50723e-07 0.0
-1.52826e-06 1.36732e-06 0.0
6.66111e-07 1.70554e-07 0.0
-4.81658e-08 1.0586e-07 0.0
5.26214e-07 -4.72934e-07 0.0
-7.93258e-08 1.03539e-07 0.0
-6.18814e-09 -5.86236e-08 0.0
4.04048e-08 -7.08366e-08 0.0
-5.51599e-08 -3.65753e-08 0.0
-7.97434e-08 -4.37934e-09 0.0
-1.38304e-11 5.8995e-09 0.0
3.14092e-07 -1.53298e-06 0.0
-1.32751e-07 -5.0051e-08 0.0
9.81235e-09 -2.36887e-08 0.0
-9.422e-08 7.24547e-08 0.0
-3.47715e-07 1.15279e-06 0.0
-2.48112e-08 -2.37222e-08 0.0
-6.56551e-07 3.59783e-07 0.0
1.16114e-07 5.17017e-07 0.0
-5.65156e-08 -8.80664e-08 0.0
-1.02449e-08 1.37799e-08 0.0
-5.864e-08 -7.83063e-08 0.0
-2.92388e-08 -1.62306e-08 0.0
-1.69982e-08 -2.04453e-08 0.0
-3.86574e-08 -1.33381e-08 0.0
-5.2928e-09 9.33548e-08 0.0
1.09505e-07 -9.22029e-08 0.0
2.47316e-09 -1.0486e-07 0.0
-1.67041e-08 2.22206e-08 0.0
-5.95684e-08 -6.89971e-08 0.0
4.69083e-10 2.19799e-08 0.0
-6.5492e-09 5.95243e-08 0.0
-2.78324e-08 -1.04432e-08 0.0
1.4803e-08 -4.72464e-08 0.0
-6.56958e-09 -1.46898e-08 0.0
-1.82994e-08 2.23704e-08 0.0
5.13107e-08 7.64598e-08 0.0
-1.21659e-06 -2.87105e-07 0.0
-8.6621e-08 -1.05214e-07 0.0
-1.30691e-06 2.18946e-06 0.0
7.98479e-08 8.60088e-08 0.0
1.30944e-06 -2.1249e-06 0.0
2.22459e-08 -3.98274e-08 0.0
-4.71511e-07 2.99959e-07 0.0
-7.84505e-08 -2.04249e-08 0.0
-6.71533e-08 -4.67614e-09 0.0
-5.81551e-08 -3.2959e-09 0.0
-6.18095e-08 1.24251e-08 0.0
-2.02487e-08 3.46309e-08 0.0
-5.48088e-08 -1.00884e-07 0.0
-3.42819e-08 -6.37385e-08 0.0
-7.06638e-08 -2.07805e-08 0.0
-9.80071e-08 -2.74985e-08 0.0
-8.71786e-08 3.36593e-08 0.0
2.03959e-08 -1.19394e-07 0.0
-7.06926e-08 -4.25354e-08 0.0
-9.20917e-08 -4.75749e-08 0.0
2.8447e-07 -9.75399e-07 0.0
-4.39319e-08 -4.78012e-08 0.0
-1.01003e-08 -1.42905e-07 0.0
-9.18102e-08 8.60949e-09 0.0
-3.31046e-08 1.73136e-09 0.0
-6.32873e-08 -2.8276e-08 0.0
-1.33095e-08 -1.96736e-08 0.0
-2.64417e-08 -1.46123e-08 0.0
-1.35438e-07 8.26433e-08 0.0
-3.46268e-07 -1.85541e-07 0.0
5.63077e-07 2.67247e-08 0.0
-3.04234e-07 1.25034e-07 0.0
-2.28517e-08 1.75339e-08 0.0
-1.47278e-08 5.62609e-09 0.0
6.13031e-09 8.26004e-10 0.0
-2.33012e-08 -1.28654e-08 0.0
-2.34233e-08 4.29795e-09 0.0
8.31962e-09 1.59636e-08 0.0
-2.00659e-08 1.85184e-08 0.0
-1.23936e-08 3.72409e-08 0.0
1.08435e-06 2.73637e-07 0.0
-1.02462e-06 1.43022e-10 0.0
6.65679e-07 1.79399e-06 0.0
4.79477e-08 2.93237e-08 0.0
3.23296e-07 -1.66952e-06 0.0
-1.21977e-08 -5.76363e-08 0.0
-3.0348e-08 1.45717e-08 0.0
-4.54659e-08 2.75509e-09 0.0
-4.8467e-08 -1.40815e-08 0.0
-4.74708e-08 -1.09779e-08 0.0
-3.37693e-08 3.85155e-08 0.0
-7.57619e-08 -4.48418e-08 0.0
-4.72831e-08 -2.24687e-08 0.0
-5.31786e-08 -2.70782e-08 0.0
-9.06953e-08 -3.40131e-08 0.0
-6.0786e-08 -3.89954e-08 0.0
-6.68235e-08 -4.81537e-08 0.0
-4.70416e-08 -2.93383e-08 0.0
-3.20993e-08 -3.49089e-08 0.0
-5.96465e-08 -3.51413e-08 0.0
-7.4275e-08 -9.08867e-08 0.0
-4.26386e-08 -4.15083e-08 0.0
-6.16707e-08 -6.08964e-08 0.0
-4.8228e-08 -4.37589e-08 0.0
-8.73631e-09 -2.03981e-08 0.0
-3.86472e-08 -2.30577e-08 0.0
-4.36863e-08 -1.99772e-08 0.0
-2.68472e-08 -1.9044e-08 0.0
-2.84141e-08 -9.84896e-09 0.0
-2.58738e-08 3.00443e-10 0.0
-4.01236e-08 -2.06136e-08 0.0
-4.16487e-08 -2.15011e-11 0.0
-3.51514e-08 -2.45807e-08 0.0
-1.18346e-08 1.63913e-08 0.0
-2.91218e-10 2.34887e-08 0.0
-3.79637e-08 1.78049e-08 0.0
-1.21679e-08 3.39879e-08 0.0
-1.29848e-08 -2.53074e-09 0.0
-1.07484e-08 3.46687e-08 0.0
-8.49219e-09 4.56474e-08 0.0
-1.45578e-07 5.12304e-07 0.0
4.54864e-08 -1.1328e-08 0.0
5.72554e-08 -4.33425e-07 0.0
-5.14488e-08 4.41129e-08 0.0
-4.63731e-08 4.82832e-09 0.0
-2.29946e-09 2.68113e-08 0.0
-1.73546e-08 1.81538e-08 0.0
-3.92702e-08 2.26626e-08 0.0
-3.49746e-08 6.85036e-09 0.0
-3.22272e-08 -4.17736e-09 0.0
-5.06115e-08 5.7169e-09 0.0
-5.71785e-08 -1.00225e-08 0.0
-4.56243e-08 -3.72053e-08 0.0
-3.72475e-08 -1.71967e-08 0.0
-3.5932e-08 -3.2629e-08 0.0
-3.36411e-08 -1.35132e-08 0.0
-3.33272e-08 -2.52115e-08 0.0
-5.86636e-08 -4.45975e-08 0.0
-3.15455e-08 -3.69514e-08 0.0
-4.7182e-08 -3.24059e-08 0.0
-7.14967e-08 -5.08936e-08 0.0
-5.05566e-08 -4.72092e-08 0.0
-8.11855e-08 -9.26207e-08 0.0
-3.71461e-08 -3.34515e-08 0.0
-4.96246e-08 -3.28174e-08 0.0
-4.5979e-08 -3.98318e-08 0.0
-2.04206e-08 -2.54751e-08 0.0
-3.8582e-08 -2.74608e-08 0.0
-3.29896e-08 -2.32599e-08 0.0
-5.89472e-08 -1.79866e-08 0.0
-3.72873e-08 4.92653e-09 0.0
-4.13535e-08 1.50518e-08 0.0
-1.27139e-08 5.57175e-09 0.0
-1.96259e-08 4.82471e-09 0.0
-8.52063e-09 -3.45667e-08 0.0
-3.59004e-08 1.22949e-08 0.0
-2.40665e-08 4.39435e-08 0.0
-1.61394e-08 2.00316e-08 0.0
-7.91075e-09 4.12942e-08 0.0
-4.21427e-08 3.41922e-08 0.0
-8.16844e-09 2.78761e-08 0.0
-1.21022e-08 1.3046e-08 0.0
-1.34607e-08 4.94782e-08 0.0
-3.73123e-10 4.39779e-08 0.0
-2.67729e-08 4.56558e-08 0.0
-1.93051e-08 2.61144e-08 0.0
-2.37693e-08 2.8674e-08 0.0
-3.03938e-08 3.7928e-08 0.0
-4.16238e-08 2.62669e-08 0.0
-2.03926e-08 2.49995e-09 0.0
-3.7026e-08 2.49454e-09 0.0
-4.06393e-08 -4.704e-09 0.0
-1.95612e-08 -3.16108e-08 0.0
-4.71073e-08 -1.00589e-08 0.0
-2.25597e-08 -8.16205e-09 0.0
-4.74504e-08 -3.27231e-08 0.0
-4.61104e-08 -4.34072e-08 0.0
-3.25241e-08 -4.13899e-08 0.0
-4.53135e-08 -3.24824e-08 0.0
-3.98027e-08 -3.68099e-08 0.0
-2.02369e-08 -2.49199e-08 0.0
-6.2738e-08 -7.06369e-08 0.0
-4.64004e-08 -3.96072e-08 0.0
-4.9957e-08 -4.22371e-08 0.0
-3.22346e-08 -1.31358e-08 0.0
-5.33255e-08 -4.22658e-08 0.0
-6.78455e-08 -1.81153e-08 0.0
-4.4915e-08 -5.95427e-09 0.0
-2.9348e-08 -6.40837e-08 0.0
-4.05036e-08 -5.01031e-09 0.0
-1.39022e-08 -4.53976e-09 0.0
-4.05833e-08 1.04228e-08 0.0
-9.24976e-09 2.40971e-08 0.0
-2.31146e-08 1.88709e-08 0.0
-3.69062e-08 3.67004e-08 0.0
-6.84102e-09 -2.0846e-09 0.0
-2.1179e-08 1.59338e-08 0.0
-2.5822e-08 4.16497e-08 0.0
-1.70636e-08 1.87149e-08 0.0
-2.09436e-08 4.96799e-08 0.0
-6.34405e-09 3.5641e-08 0.0
-3.19005e-08 4.38203e-08 0.0
4.34036e-09 2.96776e-08 0.0
-3.32273e-10 1.21742e-08 0.0
2.83829e-09 1.99182e-08 0.0
-3.00455e-08 5.72657e-08 0.0
-2.36402e-08 2.30139e-08 0.0
-4.74092e-09 8.02858e-09 0.0
-1.10089e-08 -4.88239e-09 0.0
-1.85321e-08 3.83691e-09 0.0
-1.99216e-08 2.06374e-09 0.0
-9.92601e-09 -1.90585e-08 0.0
-1.58251e-08 -5.36639e-09 0.0
-1.00019e-08 5.80603e-10 0.0
-1.15113e-08 1.74371e-09 0.0
-1.81744e-09 -2.14581e-08 0.0
-2.16518e-08 -2.17329e-08 0.0
-2.33047e-08 -2.44472e-08 0.0
-1.72823e-08 5.01786e-10 0.0
-3.30927e-08 -3.90202e-08 0.0
-2.13238e-08 -2.58475e-08 0.0
-3.77243e-08 -3.2134e-08 0.0
-1.1157e-08 -1.35834e-08 0.0
-2.03537e-08 -2.70277e-08 0.0
-1.94466e-08 -1.40897e-08 0.0
-2.11088e-08 -3.54174e-08 0.0
-2.89346e-08 -3.11965e-08 0.0
-2.4515e-08 -5.54966e-09 0.0
-3.59678e-08 4.94345e-09 0.0
-5.059e-08 7.49854e-08 0.0
1.71558e-08 1.2036e-08 0.0
-1.21342e-08 -1.09305e-08 0.0
-1.56524e-08 4.52208e-10 0.0
-3.18051e-08 -6.67742e-09 0.0
-3.37964e-09 -2.27207e-09 0.0
-1.29412e-08 1.40282e-09 0.0
-5.37884e-09 1.57786e-09 0.0
-2.75752e-08 1.07365e-08 0.0
-2.07904e-08 2.0623e-08 0.0
-2.50851e-08 -2.30781e-09 0.0
-1.15979e-08 3.11314e-08 0.0
-1.21567e-08 2.82424e-08 0.0
-4.56956e-09 1.87734e-08 0.0
-8.58451e-09 2.92794e-08 0.0
-7.26602e-09 2.843e-08 0.0
-7.2684e-09 3.05543e-08 0.0
-5.55462e-09 3.86627e-08 0.0
-9.04237e-09 4.68932e-08 0.0
-1.36204e-08 3.90443e-08 0.0
-5.33036e-10 1.38393e-08 0.0
-2.41825e-09 7.09829e-09 0.0
-4.6387e-09 7.2895e-09 0.0
-1.151e-08 1.42865e-08 0.0
-6.87491e-10 -3.20458e-09 0.0
-4.51669e-06 -2.06075e-09 0.0
-4.33301e-09 -2.28563e-09 0.0
-2.99906e-06 3.58032e-09 0.0
-6.37525e-06 -7.14044e-09 0.0
-3.59445e-09 -1.47108e-08 0.0
-5.45388e-06 4.60991e-09 0.0
-1.19007e-08 -1.9032e-08 0.0
-4.79552e-06 -8.2874e-09 0.0
-1.63015e-08 -1.18962e-08 0.0
-1.28751e-08 -5.71931e-09 0.0
-2.83099e-08 -1.62613e-08 0.0
-6.2556e-06 6.30105e-09 0.0
-2.00052e-08 2.79527e-08 0.0
-5.30596e-06 1.74878e-09 0.0
-2.15914e-08 -5.31866e-08 0.0
-3.64932e-06 -1.85834e-08 0.0
-1.8228e-08 3.66371e-09 0.0
1.75044e-09 -7.74696e-09 0.0
-8.79185e-09 2.25533e-08 0.0
-3.93922e-06 1.12857e-08 0.0
-3.65674e-06 -2.17728e-09 0.0
-5.60486e-09 -6.79873e-09 0.0
-5.70846e-06 4.70214e-09 0.0
-9.99936e-09 1.77266e-08 0.0
-7.12415e-06 -1.50436e-08 0.0
-2.3002e-08 2.91317e-08 0.0
-5.08915e-06 -6.06554e-10 0.0
-5.21628e-09 6.8744e-09 0.0
-5.48174e-06 6.04638e-09 0.0
-6.99036e-09 1.28945e-08 0.0
-4.7205e-06 6.09793e-09 0.0
-6.00875e-09 2.5938e-08 0.0
-3.07267e-06 4.07236e-09 0.0
-1.23737e-08 2.65606e-08 0.0
-5.74539e-06 1.28748e-08 0.0
8.46757e-09 4.18495e-10 0.0
-6.85353e-06 5.16e-09 0.0
7.33633e-11 1.14801e-08 0.0
-5.2596e-06 -1.24559e-09 0.0
-2.34107e-09 -3.6083e-09 0.0
VECTORS omega float
3.08158 -4.03101 -0.329411
-1.92249 1.96349 0.558479
0.0253011 0.232919 0.193014
0.403407 -1.98426 -0.717699
-0.847768 -2.03806 -0.264214
0.00992245 3.52019 0.0988017
1.13315 2.14081 -0.090646
0.0262749 -3.38361 -0.0594789
-3.11901 -0.415022 -0.264371
2.55336 0.578505 -0.0431166
0.0181901 3.58752 -0.231784
-0.0902459 -3.56511 0.135759
-1.48304 0.964757 -0.127427
1.65597 -1.06578 0.42334
-0.0838965 3.86634 -0.00602122
-0.01569 -3.5441 -0.0856155
0.834941 -1.58145 -0.127794
0.0200959 4.25283 0.0380665
0.00971428 0.346026 0.0106553
1.27932 -2.26463 -0.535069
0.00581706 -0.292941 0.0333501
-0.175606 0.10268 -0.160402
0.0794007 -0.0797505 -0.0988158
0.0105206 0.268914 0.0609028
0.0244335 -0.203555 0.00980857
-0.13972 0.093253 -0.110821
0.0140011 0.21081 -0.0173786
0.0345799 -0.109569 -0.0157781
0.00223654 -0.217395 -0.0273259
-0.054348 0.104883 -0.234124
0.0326558 0.175406 -0.0114901
-0.173419 0.0811883 0.182523
0.0230923 -0.221525 0.163294
0.215701 -0.0362029 -0.153738
-0.0727204 0.236167 -0.026736
-0.137867 0.0940503 -0.394908
0.00266764 -0.207895 -0.00644737
-0.0229052 0.228294 -0.103558
0.203007 -0.180042 -0.673237
-0.0141879 -0.26183 0.0665397
2.50217 0.402212 0.121961
-2.93915 -0.076612 -0.0848194
4.60654 -8.5055 -0.702606
-1.28108 -1.62095 -0.0715574
-6.37352 9.14556 0.111995
1.70718 1.82338 -0.387643
0.760865 -7.54712 -0.849225
2.00281 -1.57798 0.529148
-0.355497 -4.9995 -0.63188
-1.26889 1.56346 0.0242416
5.45456 1.11859 0.315534
-1.21078 2.86117 -0.8176
-0.789646 -2.781 -0.511935
-3.2168 -1.1664 0.323272
2.12724 2.52216 0.111303
2.43051 0.977603 0.262804
-0.93689 -1.84824 -0.145386
0.0626903 0.167314 -0.294288
-1.43049 2.11904 0.276408
-0.00337812 -0.0184499 0.156975
0.68899 -1.90341 -0.488955
-0.180741 0.00612025 0.259454
-0.429694 1.28396 -0.650938
-0.0839226 0.0185974 -0.37072
0.643156 -1.30722 -0.207298
0.0241593 -0.00849939 0.0214422
0.0519863 -0.156447 -0.497453
-0.109639 0.0214764 -0.176963
0.0660766 0.00659743 -0.245476
-0.051412 0.0198522 -0.232594
0.134344 -0.0275291 -0.309576
-0.160492 -0.0421287 -0.232005
0.342735 0.204002 -1.51183
-0.127147 0.175204 0.897833
-0.106612 0.254169 -1.10634
0.14796 -0.236949 -0.0500534
0.0904439 -0.0840092 -0.0775291
0.0496863 0.268916 -0.0224801
-0.216939 0.090467 -0.0643904
0.129738 -0.22343 0.177737
-0.0241466 -0.0906049 -0.322926
4.90857 0.799077 0.254342
-3.6143 8.75797 -0.423057
2.01703 -6.70975 -0.408248
-6.28471 -0.947735 -0.151564
-0.327088 -14.0395 0.202794
8.51764 0.666456 -0.561783
0.779687 1.30973 -0.674287
-1.98256 0.886095 0.60446
0.315977 -0.513851 -0.0919175