# vtk DataFile Version 2.0
Generated by lpp.py
ASCII
DATASET POLYDATA
POINTS 400 float
0.00132922 0.000444562 3.36586e-05
0.0009158 0.00128427 -1.66342e-05
0.000242446 0.000443461 -3.64628e-05
3.11365e-06 0.0013191 4.93031e-05
0.00183836 0.00127992 5.09221e-06
0.00226993 0.000436054 -1.24497e-05
0.00274451 0.00128813 4.63423e-05
0.00324881 0.000515587 4.67087e-05
0.00374847 0.00129082 -1.5404e-05
0.00460905 0.00119529 -2.0603e-05
0.00417456 0.000417224 3.04549e-05
0.00511821 0.000469535 4.04467e-05
0.0056736 0.00130796 -2.65834e-05
0.00664614 0.0012885 -2.02466e-06
0.00602359 0.000418318 -1.20537e-05
0.0069327 0.000444306 3.91278e-05
0.00824799 0.0011758 -1.82355e-06
0.00779486 0.000364929 3.24564e-05
0.00876672 0.000397085 -3.28708e-05
0.00930924 0.00138664 3.24568e-05
0.00975866 0.000490931 -2.76781e-05
0.0103916 0.00131278 -4.92787e-05
0.0113839 0.00139196 -4.32784e-06
0.0107669 0.000444171 -3.96086e-06
0.0117824 0.000485326 -1.32742e-05
0.0124112 0.00132855 1.95463e-05
0.0127837 0.000442063 1.3181e-05
0.0134383 0.0012253 3.75182e-05
0.0136161 0.000329114 1.89547e-05
0.0143587 0.00161811 1.99029e-05
0.0143679 0.000726333 -4.71808e-05
0.0156522 0.00128483 1.72248e-05
0.0152298 0.00042623 3.7231e-06
0.0165555 0.00131773 3.54547e-05
0.0161601 0.000503354 -4.85386e-05
0.0178014 0.00133149 -3.92382e-05
0.0171625 0.000539311 -3.8784e-05
0.018242 0.000485916 3.096e-05
0.0189253 0.00128044 6.72355e-06
0.0192499 0.000429932 -3.72737e-05
0.000917246 0.00230502 5.14548e-06
0.00039614 0.00316098 -4.9345e-05
0.00207858 0.00294936 -3.17454e-05
0.00233044 0.00212134 -1.41959e-06
0.00293484 0.00285175 3.50109e-05
0.00326266 0.00201905 -3.46654e-05
0.0038761 0.00297731 -3.02218e-05
0.00413451 0.00208985 3.70504e-05
0.0049937 0.00300382 3.07542e-05
0.00498161 0.00196007 -2.23732e-05
0.00565225 0.00243787 -2.11247e-06
0.00624572 0.00307325 -3.67063e-05
0.00643096 0.00213299 3.11799e-05
0.00699857 0.00270874 -2.75116e-05
0.00732467 0.00190902 4.80419e-05
0.00773585 0.00291239 1.77683e-05
0.00829449 0.00219784 -3.97226e-05
0.00877356 0.00311792 4.55657e-05
0.00925582 0.00230736 1.80717e-05
0.00981395 0.00312836 -3.93388e-05
0.0101437 0.0022247 2.40231e-05
0.0107478 0.00309892 2.716e-05
0.011104 0.00228273 -4.78087e-05
0.0116692 0.00309716 -4.25165e-05
0.0120663 0.00222627 -4.01526e-05
0.0126373 0.00312733 2.94528e-05
0.0131145 0.00223007 4.21294e-05
0.0136655 0.00314464 2.4953e-06
0.0141766 0.00242005 2.35941e-05
0.0146426 0.00314071 -2.89305e-05
0.0150895 0.00224144 3.21045e-05
0.0156265 0.00308432 2.08022e-05
0.0160138 0.00208855 1.69816e-05
0.0165134 0.0028407 -1.31875e-05
0.0169384 0.00207742 -2.13541e-05
0.0173679 0.00302262 -2.48084e-05
0.0178745 0.00224473 7.17441e-06
0.0184545 0.00302976 -3.11061e-05
0.0188725 0.00221018 -6.697e-06
0.0194446 0.00304074 1.88296e-05
0.0198627 0.00218078 2.40593e-05
0.00133097 0.00346881 4.11056e-07
0.00155791 0.00438227 -3.43082e-05
0.000533593 0.00405844 4.11872e-05
0.00226706 0.00383475 4.14547e-05
0.00264476 0.00468329 2.79416e-05
0.00315048 0.0036889 -1.57031e-06
0.00361758 0.00470187 5.32063e-06
0.00403417 0.00391628 -2.6529e-06
0.00460401 0.00494741 -3.58607e-05
0.00501183 0.00397289 -2.13321e-05
0.00567933 0.00479154 -4.97251e-05
0.0059865 0.00390414 -2.41619e-05
0.00669175 0.0045987 -2.57589e-05
0.00703358 0.00365552 -4.22335e-05
0.00776071 0.00462547 4.30556e-05
0.00796992 0.00368182 4.42331e-05
0.00878663 0.00405807 -4.39636e-05
0.00981183 0.00486681 4.93343e-05
0.00961701 0.00399932 4.05756e-05
0.00872388 0.00490496 -1.72291e-05
0.0104321 0.00388039 -3.72271e-05
0.0107894 0.00466915 4.50596e-05
0.0112919 0.00394089 1.35023e-05
0.011951 0.00476069 3.81834e-05
0.0121522 0.00389629 3.14585e-06
0.0129217 0.00493116 -2.4127e-05
0.0131437 0.00399674 1.0814e-05
0.0137815 0.00483831 -4.51984e-05
0.0142008 0.00402752 1.00341e-06
0.0147261 0.00489024 6.87793e-06
0.0151696 0.00395627 1.87838e-05
0.0160966 0.00415378 4.33922e-05
0.0167944 0.00468942 2.18197e-05
0.0170462 0.00386999 -2.12721e-05
0.0176789 0.0046096 6.56493e-06
0.0179769 0.00377864 9.36883e-06
0.018714 0.00454052 3.03201e-05
0.0194238 0.00392728 1.43967e-05
0.0197696 0.00479207 -2.66714e-05
0.000811434 0.00500237 1.15215e-05
0.00122031 0.00595308 1.46596e-05
0.000351571 0.00650348 -3.99128e-05
0.000106643 0.00571924 -3.26099e-05
0.00183334 0.00521902 -7.07934e-06
0.00215838 0.00646039 -2.06108e-05
0.00265294 0.00563307 3.54227e-05
0.00315274 0.00641195 -2.96496e-05
0.00360611 0.00562935 1.90715e-05
0.00446539 0.00591295 1.72497e-05
0.00537859 0.00576117 2.50127e-05
0.00597539 0.00650184 -4.27825e-05
0.00631272 0.00553457 2.43943e-05
0.00681842 0.00637488 -3.07296e-05
0.00722338 0.00549581 -2.4969e-05
0.00772553 0.00633458 1.47771e-05
0.00819701 0.00555823 -2.62417e-05
0.00866006 0.00633009 -3.20614e-05
0.00927715 0.00565746 -4.70071e-05
0.0101371 0.00574049 4.476e-05
0.0109521 0.00555048 -5.06646e-06
0.0114079 0.00651431 -4.22073e-05
0.0117791 0.00567212 2.60985e-05
0.0123586 0.00640906 1.83575e-05
0.012541 0.00560164 -2.28987e-05
0.0132384 0.00609552 2.90979e-05
0.0141766 0.0057723 4.28851e-05
0.0151998 0.00589409 -1.46308e-05
0.0156967 0.00502051 -7.56683e-06
0.0160778 0.00623803 -4.83823e-05
0.0165347 0.00551836 2.89194e-05
0.0170226 0.00631607 3.21564e-05
0.0173362 0.00537659 -4.85919e-05
0.0181001 0.0062833 -1.12464e-05
0.0181603 0.00535689 3.12852e-05
0.0193157 0.00636272 2.46256e-05
0.0190754 0.00549371 -4.44854e-05
0.00129787 0.00681635 -2.73404e-05
0.00117657 0.00796009 -3.38667e-05
0.000635079 0.00726079 -4.2113e-05
0.000145286 0.00807665 1.49646e-05
0.00193731 0.00742698 7.74856e-06
0.00209121 0.00829986 5.5329e-07
0.00286727 0.00725695 3.67542e-05
0.00296354 0.00820044 1.2865e-05
0.00378042 0.00772343 -4.70278e-05
0.00402834 0.00673781 -1.13161e-05
0.00475465 0.00768285 1.72877e-05
0.00508398 0.00677443 -4.33679e-05
0.00572034 0.00765915 7.98975e-06
0.00649499 0.00722421 -4.89198e-05
0.00707548 0.00808584 -1.8846e-05
0.00739211 0.00719486 -2.80691e-05
0.00795689 0.00787408 -4.34141e-05
0.0082718 0.00712093 2.59556e-05
0.00887841 0.00784322 -3.81694e-05
0.00944482 0.0069186 -2.37608e-06
0.00987053 0.00782383 -1.57412e-05
0.010432 0.00667008 -1.47472e-05
0.0107794 0.00823722 4.979e-05
0.0110419 0.0073583 2.22644e-05
0.0117572 0.00821466 -4.55597e-05
0.0120682 0.00730479 -4.5975e-05
0.012889 0.00785493 4.23607e-05
0.01305 0.00699539 4.20701e-05
0.0138821 0.00781783 -5.04024e-06
0.0139333 0.00680113 1.64328e-05
0.0148858 0.00792295 -1.6913e-05
0.0149367 0.00691296 -4.21217e-05
0.0158549 0.00811049 -3.94419e-05
0.0159457 0.00713203 -1.21974e-05
0.0167158 0.00770069 -3.70828e-05
0.0175209 0.00715176 -3.33274e-05
0.01819 0.00805545 -3.83096e-05
0.018538 0.00717417 -2.02095e-05
0.0192106 0.00778154 -4.84051e-05
0.0197903 0.00713021 -3.46879e-05
0.00163611 0.00915086 2.66777e-05
0.000838886 0.00875884 -3.96098e-06
0.00077024 0.00962929 -1.72888e-05
0.00235773 0.00997687 2.41907e-05
0.00261851 0.00906557 4.87165e-05
0.00326815 0.00972715 7.50784e-06
0.00351428 0.00889147 -7.08428e-06
0.00422955 0.00954446 6.12283e-06
0.00439291 0.00858052 1.74262e-06
0.00520505 0.00943701 -2.81666e-05
0.00538854 0.00853036 -1.04316e-05
0.00615188 0.00937602 9.49774e-06
0.00626929 0.00848836 -4.45245e-05
0.00698239 0.0090259 3.54547e-06
0.00744592 0.00986823 -2.7703e-05
0.00782651 0.00871286 -4.92713e-05
0.00824206 0.00951009 1.26179e-05
0.0087466 0.00878737 4.93873e-05
0.00914194 0.00970183 -4.18982e-05
0.00975707 0.00885844 -9.33208e-06
0.0107089 0.00929062 -3.72943e-05
0.0114158 0.00989587 1.32074e-05
0.011653 0.00908315 3.24679e-05
0.0123399 0.00976313 -1.82378e-05
0.0125905 0.008764 4.17083e-05
0.0132568 0.00962728 2.0062e-05
0.0135917 0.00880655 -3.30909e-05
0.0140789 0.00960044 -4.57402e-05
0.0145812 0.00882888 -3.07794e-05
0.0149557 0.00967067 4.85236e-05
0.015531 0.00898094 -3.2558e-05
0.0158499 0.00994018 -4.73944e-05
0.0165029 0.00883657 -2.5672e-05
0.0167422 0.00969288 -3.5681e-05
0.0173565 0.00835077 2.81917e-06
0.0174644 0.0092317 -4.5525e-06
0.0199943 0.00908498 -3.41589e-05
0.0183607 0.00993151 1.70983e-05
0.018381 0.00898664 -3.29151e-05
0.0191882 0.00955477 4.46827e-05
0.0191862 0.00861099 -3.50995e-05
0.00165487 0.0115951 -2.75196e-05
0.00146524 0.0100983 -3.628e-05
0.00105032 0.0108601 -3.81409e-05
0.000143364 0.0110251 4.26166e-05
0.00195997 0.010757 2.8646e-05
0.00260023 0.0113926 1.79805e-07
0.00301592 0.0105899 -3.0738e-05
0.00357443 0.0113157 1.32908e-05
0.0039116 0.0104447 3.19371e-06
0.00453773 0.0112751 -4.05009e-05
0.00493036 0.0103845 2.58338e-05
0.00547792 0.0112324 5.57899e-06
0.00584732 0.0102238 3.55182e-05
0.00638089 0.0110304 -2.60959e-05
0.00666244 0.0101965 1.90003e-05
0.00731148 0.0108269 2.40728e-05
0.00809662 0.0115371 -1.09524e-05
0.00826914 0.0105065 -2.41459e-05
0.0092521 0.0106613 1.14157e-05
0.009044 0.0115583 -2.28614e-05
0.0100157 0.0100987 7.96265e-06
0.0101002 0.0110622 4.36203e-05
0.0108178 0.010476 4.40746e-05
0.0110207 0.0113655 4.26806e-05
0.0117638 0.0107258 1.59016e-05
0.0126948 0.0106176 -4.05226e-06
0.0131723 0.0112637 -3.49974e-05
0.013621 0.0104335 -2.12959e-05
0.0139864 0.0112403 -3.47829e-05
0.0145369 0.0103617 -6.10015e-06
0.0148982 0.011215 -4.9699e-05
0.0158611 0.0110015 -3.49785e-05
0.0166332 0.0105624 -3.04875e-05
0.0166776 0.0115683 2.14731e-05
0.017369 0.0110696 4.23831e-06
0.0175022 0.0102042 1.54215e-05
0.018344 0.0109073 -4.02054e-05
0.0191269 0.01043 -1.5365e-05
0.0192645 0.01131 -1.60515e-05
0.019982 0.0101227 -4.17269e-05
0.00144393 0.012654 1.39627e-05
0.000736323 0.0118006 -9.96495e-06
0.000503389 0.0127297 2.195e-05
0.00231556 0.012322 1.50647e-05
0.00299845 0.0130595 -2.83946e-05
0.00323985 0.0121448 2.84116e-05
0.00409625 0.0129436 -8.8818e-06
0.00411868 0.0120332 -1.71454e-05
0.00499785 0.0130874 4.3363e-05
0.00509218 0.0121521 3.19528e-05
0.00584607 0.0129001 -3.24457e-07
0.00611383 0.011959 1.74786e-05
0.00670533 0.0126439 -2.9504e-05
0.00712737 0.0117926 2.61725e-05
0.00761681 0.0126989 -7.28073e-06
0.00860253 0.012419 2.21972e-05
0.00934256 0.0130128 3.4178e-05
0.00986616 0.0119911 -3.43726e-05
0.0101856 0.0129302 2.4284e-05
0.0108045 0.0122984 4.99362e-05
0.0112049 0.0131399 1.79808e-05
0.011959 0.0117324 3.01021e-05
0.0121216 0.012802 -4.81269e-05
0.0128694 0.0119922 3.49515e-06
0.0131738 0.0128318 8.09002e-06
0.0138193 0.0121022 -1.27408e-05
0.0143125 0.0129714 1.51186e-05
0.0147781 0.0121962 -2.52694e-05
0.0155205 0.0127984 -2.24734e-05
0.0156391 0.0118902 -4.84058e-07
0.0163759 0.0124313 2.73575e-05
0.0171904 0.0123295 2.6071e-05
0.0172871 0.0131968 -3.7354e-05
0.0179405 0.0118429 -4.54593e-05
0.0180162 0.0127923 -4.8395e-05
0.0187572 0.0130942 7.82155e-06
0.0189044 0.012196 -1.47463e-05
0.0195977 0.0129238 -3.72359e-05
0.0198415 0.0120499 -4.13942e-05
0.00116064 0.0135724 -4.1589e-05
0.00101079 0.0145439 -1.31753e-05
0.000227982 0.0136114 -1.17246e-06
8.55631e-06 0.0145337 -2.39016e-05
0.00196085 0.0145664 -5.27218e-06
0.00206552 0.0133435 2.70269e-05
0.00272591 0.0140038 -4.69919e-05
0.0031335 0.0148444 2.49655e-05
0.0036634 0.0138 2.96183e-05
0.004041 0.0146143 1.43924e-05
0.0046537 0.0139041 -3.62044e-05
0.00527039 0.0145393 2.52958e-05
0.00559629 0.0137726 -4.96651e-05
0.00612699 0.0145254 -1.66336e-06
0.00650605 0.0136439 -6.05535e-06
0.00704761 0.0145708 -2.79437e-05
0.00749098 0.0137014 1.57621e-06
0.00810776 0.0145648 -3.93501e-06
0.00844167 0.0134485 4.44824e-05
0.00917774 0.0140485 4.05064e-05
0.00982181 0.0147271 -8.94147e-06
0.00901197 0.0149816 -1.15952e-07
0.0101402 0.0138525 -3.1985e-05
0.0106621 0.014655 2.67646e-06
0.0110737 0.0139577 8.79731e-06
0.0115462 0.0146915 -1.90989e-05
0.0118641 0.0137583 1.18363e-05
0.012382 0.0144663 -1.70971e-05
0.0127462 0.0136436 2.04004e-05
0.013307 0.0143823 -4.99115e-05
0.0136975 0.0135856 4.34762e-05
0.0142454 0.0146397 2.36495e-05
0.0145433 0.0138164 1.50053e-05
0.0151919 0.0145938 -1.68329e-05
0.015425 0.0136952 2.59986e-05
0.0162008 0.0144175 -4.8797e-05
0.0163339 0.0133866 -2.94781e-05
0.0172102 0.0141678 -3.80464e-05
0.0180657 0.0146261 6.36771e-07
0.0181226 0.0136983 -4.54767e-05
0.0190006 0.0145422 -3.38088e-05
0.0193259 0.0137382 6.46138e-06
0.00150042 0.0153982 3.1619e-05
0.00109708 0.0162518 -3.75421e-05
0.000578208 0.0153936 1.65265e-05
0.000208467 0.0162431 3.22872e-05
0.00205193 0.0162628 -2.29225e-05
0.00242735 0.015416 -4.48401e-05
0.00307858 0.0161904 -1.88293e-05
0.00380993 0.0155206 5.22691e-06
0.00405983 0.0163411 -2.84806e-06
0.0047097 0.0152438 3.75063e-05
0.0049808 0.0161965 -2.57249e-06
0.00564344 0.0153344 -3.31627e-05
0.00600247 0.0162177 4.29286e-05
0.00662456 0.0154123 3.83299e-05
0.0069915 0.016287 8.05502e-06
0.00754337 0.0153673 -1.60873e-07
0.00787064 0.0162829 4.44584e-05
0.00845895 0.015674 1.77529e-05
0.00926498 0.0160936 1.78253e-05
0.0100043 0.0155493 1.34032e-05
0.0100928 0.0163679 -1.78006e-05
0.0108474 0.0163493 3.69213e-05
0.0110091 0.0154967 -2.36735e-05
0.0117032 0.016268 -3.81553e-05
0.012091 0.0154058 -3.46021e-05
0.0127012 0.0162183 4.68532e-05
0.0131181 0.0153178 -4.47667e-06
0.0136933 0.0163161 -3.82493e-05
0.0140739 0.0155215 4.44816e-05
0.0146091 0.0162972 2.60965e-05
0.0149894 0.0154791 -1.42244e-05
0.0155274 0.0162593 -2.63927e-05
0.0159248 0.0153997 1.45032e-05
0.0164073 0.0162683 1.42827e-05
0.0169459 0.015225 8.61202e-06
0.0173276 0.0162318 1.04172e-05
0.0178584 0.0154408 -1.6534e-05
0.0183316 0.0162463 1.14277e-05
0.0187295 0.0153946 3.47044e-05
0.0193063 0.0162476 4.63278e-05
0.0196587 0.015417 -1.23126e-05
VERTICES 400 800
1 0
1 1
1 2
1 3
1 4
1 5
1 6
1 7
1 8
1 9
1 10
1 11
1 12
1 13
1 14
1 15
1 16
1 17
1 18
1 19
1 20
1 21
1 22
1 23
1 24
1 25
1 26
1 27
1 28
1 29
1 30
1 31
1 32
1 33
1 34
1 35
1 36
1 37
1 38
1 39
1 40
1 41
1 42
1 43
1 44
1 45
1 46
1 47
1 48
1 49
1 50
1 51
1 52
1 53
1 54
1 55
1 56
1 57
1 58
1 59
1 60
1 61
1 62
1 63
1 64
1 65
1 66
1 67
1 68
1 69
1 70
1 71
1 72
1 73
1 74
1 75
1 76
1 77
1 78
1 79
1 80
1 81
1 82
1 83
1 84
1 85
1 86
1 87
1 88
1 89
1 90
1 91
1 92
1 93
1 94
1 95
1 96
1 97
1 98
1 99
1 100
1 101
1 102
1 103
1 104
1 105
1 106
1 107
1 108
1 109
1 110
1 111
1 112
1 113
1 114
1 115
1 116
1 117
1 118
1 119
1 120
1 121
1 122
1 123
1 124
1 125
1 126
1 127
1 128
1 129
1 130
1 131
1 132
1 133
1 134
1 135
1 136
1 137
1 138
1 139
1 140
1 141
1 142
1 143
1 144
1 145
1 146
1 147
1 148
1 149
1 150
1 151
1 152
1 153
1 154
1 155
1 156
1 157
1 158
1 159
1 160
1 161
1 162
1 163
1 164
1 165
1 166
1 167
1 168
1 169
1 170
1 171
1 172
1 173
1 174
1 175
1 176
1 177
1 178
1 179
1 180
1 181
1 182
1 183
1 184
1 185
1 186
1 187
1 188
1 189
1 190
1 191
1 192
1 193
1 194
1 195
1 196
1 197
1 198
1 199
1 200
1 201
1 202
1 203
1 204
1 205
1 206
1 207
1 208
1 209
1 210
1 211
1 212
1 213
1 214
1 215
1 216
1 217
1 218
1 219
1 220
1 221
1 222
1 223
1 224
1 225
1 226
1 227
1 228
1 229
1 230
1 231
1 232
1 233
1 234
1 235
1 236
1 237
1 238
1 239
1 240
1 241
1 242
1 243
1 244
1 245
1 246
1 247
1 248
1 249
1 250
1 251
1 252
1 253
1 254
1 255
1 256
1 257
1 258
1 259
1 260
1 261
1 262
1 263
1 264
1 265
1 266
1 267
1 268
1 269
1 270
1 271
1 272
1 273
1 274
1 275
1 276
1 277
1 278
1 279
1 280
1 281
1 282
1 283
1 284
1 285
1 286
1 287
1 288
1 289
1 290
1 291
1 292
1 293
1 294
1 295
1 296
1 297
1 298
1 299
1 300
1 301
1 302
1 303
1 304
1 305
1 306
1 307
1 308
1 309
1 310
1 311
1 312
1 313
1 314
1 315
1 316
1 317
1 318
1 319
1 320
1 321
1 322
1 323
1 324
1 325
1 326
1 327
1 328
1 329
1 330
1 331
1 332
1 333
1 334
1 335
1 336
1 337
1 338
1 339
1 340
1 341
1 342
1 343
1 344
1 345
1 346
1 347
1 348
1 349
1 350
1 351
1 352
1 353
1 354
1 355
1 356
1 357
1 358
1 359
1 360
1 361
1 362
1 363
1 364
1 365
1 366
1 367
1 368
1 369
1 370
1 371
1 372
1 373
1 374
1 375
1 376
1 377
1 378
1 379
1 380
1 381
1 382
1 383
1 384
1 385
1 386
1 387
1 388
1 389
1 390
1 391
1 392
1 393
1 394
1 395
1 396
1 397
1 398
1 399
POINT_DATA 400
VECTORS f float
-2.99739e-08 -1.69066e-08 0.0
-3.63108e-08 9.01796e-09 0.0
1.83316e-08 -1.55161e-08 0.0
-4.0767e-08 -4.07501e-08 0.0
-4.26282e-08 -4.54135e-08 0.0
-2.89228e-08 -2.05949e-08 0.0
-4.7444e-08 -3.1339e-08 0.0
-2.93218e-08 -1.88072e-09 0.0
-6.65236e-09 -1.15556e-08 0.0
-1.77467e-08 -1.20199e-08 0.0
-9.10006e-09 -5.65812e-09 0.0
-1.80523e-08 -1.26832e-08 0.0
-3.61619e-08 -2.61746e-08 0.0
-1.44745e-08 -3.29537e-08 0.0
-9.6139e-09 -7.80703e-09 0.0
-1.55885e-08 -1.58753e-08 0.0
-4.07977e-08 -3.49244e-08 0.0
-2.67534e-09 -7.32135e-09 0.0
3.47118e-09 -1.09087e-09 0.0
6.2008e-08 -4.1179e-08 0.0
4.19629e-08 -3.51618e-08 0.0
2.11909e-09 -5.1753e-08 0.0
-2.05128e-08 -2.88876e-08 0.0
2.07865e-08 -1.15507e-08 0.0
-2.38934e-09 -2.27589e-08 0.0
-2.16824e-08 -2.89966e-08 0.0
-4.02919e-09 -1.11761e-08 0.0
-2.28559e-08 -2.92785e-08 0.0
-2.54899e-09 -5.8351e-09 0.0
-2.0884e-08 -2.10642e-08 0.0
-1.45776e-08 -1.37387e-08 0.0
-5.69949e-09 -1.94182e-09 0.0
-1.42822e-08 -7.19577e-09 0.0
-1.76477e-08 -2.08014e-08 0.0
-2.48004e-08 -2.82168e-09 0.0
-7.03927e-08 -2.13067e-08 0.0
-3.00965e-08 -3.05765e-08 0.0
-2.11208e-08 -1.0226e-08 0.0
-7.02691e-08 -2.2171e-08 0.0
-3.30297e-09 1.92935e-09 0.0
-1.05828e-07 5.05962e-09 0.0
-1.53375e-07 -6.00726e-08 0.0
-1.02622e-07 -5.97752e-08 0.0
-1.00304e-07 -6.32307e-08 0.0
-7.46915e-08 -4.70049e-08 0.0
-7.96576e-08 -4.72338e-08 0.0
-1.44417e-07 -8.28174e-08 0.0
-5.59025e-08 -4.21916e-08 0.0
-7.59648e-08 -1.14543e-07 0.0
-4.70945e-08 -2.01941e-08 0.0
-2.84494e-08 -5.23299e-08 0.0
-6.33662e-08 -1.02901e-07 0.0
-3.31613e-08 -5.69578e-08 0.0
-3.56075e-08 -2.47557e-08 0.0
-4.13416e-08 -1.85944e-08 0.0
-4.23353e-08 -3.97027e-08 0.0
-8.3294e-08 -6.55417e-08 0.0
-1.0358e-07 -4.85986e-08 0.0
-4.94747e-08 -4.28372e-08 0.0
-1.28104e-07 -8.72954e-08 0.0
-6.30254e-08 -6.19587e-08 0.0
-8.67096e-08 -6.271e-08 0.0
-5.34744e-08 -4.87343e-08 0.0
-9.91619e-08 -6.12927e-08 0.0
-5.33005e-08 -4.29878e-08 0.0
-1.09858e-07 -6.91716e-08 0.0
-9.43458e-08 -6.37675e-08 0.0
-1.08456e-07 -7.90425e-08 0.0
-4.08258e-08 -3.33807e-08 0.0
-9.13531e-08 -5.4802e-08 0.0
-3.74521e-08 -2.83117e-08 0.0
-9.84066e-08 -1.0165e-09 0.0
-3.75466e-08 1.03893e-08 0.0
-7.56825e-08 1.5663e-08 0.0
-9.29196e-08 4.46049e-09 0.0
-8.50614e-08 -2.32643e-08 0.0
-1.52129e-07 -3.39214e-08 0.0
-1.19258e-07 -4.39577e-08 0.0
-1.32685e-07 -4.66821e-08 0.0
-1.74637e-07 -7.3591e-08 0.0
-1.4695e-07 -7.21056e-08 0.0
-2.12021e-07 -1.27899e-07 0.0
-1.16578e-07 -7.7422e-08 0.0
-1.21267e-07 -6.79274e-08 0.0
-1.29884e-07 -8.22646e-08 0.0
-1.15988e-07 -9.215e-08 0.0
-1.14127e-07 -6.36902e-08 0.0
-1.28673e-07 -8.40418e-08 0.0
-1.53746e-07 -7.97062e-08 0.0
-2.02982e-07 -1.63127e-07 0.0
-1.98418e-07 -1.51843e-07 0.0
-1.8043e-07 -1.86915e-07 0.0
-1.07838e-07 -1.04907e-07 0.0
-1.5392e-07 -1.39579e-07 0.0
-9.10751e-08 -8.24167e-08 0.0
-1.82589e-07 -1.00251e-07 0.0
-6.73688e-08 -5.09874e-08 0.0
-8.13701e-08 -3.15441e-08 0.0
-1.1885e-07 -3.55269e-08 0.0
-5.77743e-08 -4.02093e-08 0.0
-1.01487e-07 -2.86468e-08 0.0
-5.7641e-08 -4.73337e-08 0.0
-1.24266e-07 -5.90915e-08 0.0
-6.30891e-08 -3.73129e-08 0.0
-1.4067e-07 -9.12804e-08 0.0
-6.86369e-08 -4.23374e-08 0.0
-1.41706e-07 -8.83595e-08 0.0
-1.4133e-07 -1.06404e-07 0.0
-1.03369e-07 -5.78386e-08 0.0
-1.50222e-07 -9.07476e-08 0.0
-1.50803e-07 -8.42392e-08 0.0
-1.37749e-07 -5.45347e-08 0.0
-1.2364e-07 -5.61442e-08 0.0
-9.43453e-08 -4.16502e-08 0.0
-1.12849e-07 -4.39476e-08 0.0
-9.33184e-08 -3.38865e-08 0.0
-1.25322e-07 -4.16399e-08 0.0
-1.94619e-07 -8.9406e-08 0.0
-1.01904e-07 -4.46177e-08 0.0
-1.62264e-07 -7.48336e-08 0.0
-1.97692e-07 -1.22112e-07 0.0
-1.20198e-07 -7.76646e-08 0.0
-3.4899e-08 -3.83364e-08 0.0
-9.86907e-08 -6.17141e-08 0.0
-1.27684e-07 -9.25751e-08 0.0
-1.33465e-07 -1.02298e-07 0.0
-1.20578e-07 -9.45644e-08 0.0
-8.63412e-08 -6.36443e-08 0.0
-1.6781e-07 -1.27278e-07 0.0
-1.02204e-07 -8.62416e-08 0.0
-2.03576e-07 -1.71256e-07 0.0
-9.58185e-08 -6.9237e-08 0.0
-1.02644e-07 -7.64833e-08 0.0
-1.46657e-07 -8.55034e-08 0.0
-1.58951e-07 -8.83938e-08 0.0
-1.66904e-07 -6.77667e-08 0.0
-1.22947e-07 -4.60151e-08 0.0
-1.70761e-07 -4.72705e-08 0.0
-1.43952e-07 -2.01639e-08 0.0
-1.41412e-07 -2.62244e-08 0.0
-1.51257e-07 -5.54151e-08 0.0
-1.93468e-07 -8.80873e-08 0.0
-1.49863e-07 -8.61752e-08 0.0
-1.68536e-07 -1.04005e-07 0.0
-9.91991e-08 -6.20453e-08 0.0
-1.64277e-07 -1.09922e-07 0.0
-2.31716e-07 -1.43479e-07 0.0
-1.82298e-07 -1.06893e-07 0.0
-1.32979e-07 -7.19399e-08 0.0
-1.48605e-07 -9.18367e-08 0.0
-1.30528e-07 -6.27941e-08 0.0
-1.00387e-07 -3.12802e-08 0.0
-8.40047e-08 -3.08414e-08 0.0
-6.24186e-08 -7.50099e-08 0.0
-1.15915e-07 -4.61014e-08 0.0
3.71703e-08 -1.06727e-07 0.0
-1.22923e-07 -6.93062e-08 0.0
-5.47888e-08 -4.33984e-08 0.0
-6.30952e-08 -6.81552e-08 0.0
-4.21737e-08 -3.96683e-08 0.0
-5.44719e-08 -6.64504e-08 0.0
-7.08459e-08 -6.79172e-08 0.0
-4.61771e-08 -4.21489e-08 0.0
-1.16803e-07 -9.05313e-08 0.0
-5.94147e-08 -5.46665e-08 0.0
-9.96361e-08 -7.38963e-08 0.0
-1.30784e-07 -1.09526e-07 0.0
-1.1244e-07 -7.85926e-08 0.0
-2.025e-07 -1.61098e-07 0.0
-1.41952e-07 -1.05857e-07 0.0
-1.45733e-07 -8.32416e-08 0.0
-1.444e-07 -5.3559e-08 0.0
-1.34674e-07 -5.3169e-08 0.0
-7.68175e-08 -3.178e-08 0.0
-1.22543e-07 -4.7005e-08 0.0
-1.8461e-07 -5.29597e-08 0.0
-2.22849e-07 -3.51994e-08 0.0
-1.43355e-07 -4.37674e-08 0.0
-2.32824e-07 -4.91479e-08 0.0
-1.50405e-07 -6.12157e-08 0.0
-8.25728e-08 -3.28617e-08 0.0
-1.17671e-07 -8.39365e-08 0.0
-1.75284e-07 -1.20782e-07 0.0
-1.10819e-07 -9.4475e-08 0.0
-1.18292e-07 -8.83231e-08 0.0
-1.7347e-07 -1.63742e-07 0.0
-1.42758e-07 -1.0833e-07 0.0
-1.1247e-07 -1.15875e-07 0.0
-2.20239e-07 -1.61826e-07 0.0
-1.02007e-07 -1.35002e-07 0.0
-1.46375e-07 -1.16177e-07 0.0
-9.56032e-08 -1.47612e-07 0.0
-6.73345e-08 -1.18414e-07 0.0
-5.795e-08 -6.81841e-08 0.0
-5.24451e-08 -5.95819e-08 0.0
-3.00193e-08 -4.97567e-08 0.0
-5.53807e-08 -5.99001e-08 0.0
-5.27721e-08 -5.45834e-08 0.0
-2.83537e-08 -2.96911e-08 0.0
-4.2141e-08 -4.81061e-08 0.0
-3.74546e-08 -4.48002e-08 0.0
-5.49125e-08 -5.27592e-08 0.0
-3.05325e-08 -2.80668e-08 0.0
-4.41945e-08 -3.70586e-08 0.0
-5.59507e-08 -3.40934e-08 0.0
-1.14648e-07 -7.84055e-08 0.0
-6.5172e-08 -3.21835e-08 0.0
-9.32555e-08 -6.90255e-08 0.0
-8.1149e-08 -3.73476e-08 0.0
-5.13657e-08 -2.83138e-08 0.0
-7.57993e-08 -3.10224e-08 0.0
-8.10252e-08 -1.87741e-08 0.0
-7.49319e-08 -2.64182e-08 0.0
-7.06117e-08 -2.3435e-08 0.0
-8.94644e-08 -3.70515e-08 0.0
-8.51901e-08 -4.10747e-08 0.0
-1.49732e-07 -6.33374e-08 0.0
-1.24934e-07 -4.69296e-08 0.0
-5.37749e-08 -4.99698e-08 0.0
-8.21217e-08 -5.60251e-08 0.0
-1.01323e-07 -1.31533e-07 0.0
-1.22159e-07 -1.43439e-07 0.0
-4.29255e-08 -5.91468e-08 0.0
-1.00352e-07 -1.19938e-07 0.0
-4.99514e-08 -7.47938e-08 0.0
-9.57726e-08 -1.29853e-07 0.0
-6.10485e-08 -9.97099e-08 0.0
-7.45259e-08 -1.16377e-07 0.0
-8.34893e-08 -1.52227e-07 0.0
-7.68358e-08 -1.2516e-07 0.0
-4.32017e-08 -7.97387e-08 0.0
-6.10966e-08 -8.16568e-08 0.0
-5.79143e-08 -1.01561e-07 0.0
-6.5011e-08 -7.12547e-08 0.0
-5.15841e-08 -8.41182e-08 0.0
-5.99017e-08 -9.6727e-08 0.0
-5.51988e-08 -6.92517e-08 0.0
-3.24835e-08 -4.98386e-08 0.0
-2.18787e-08 -4.0563e-08 0.0
-2.72994e-08 -3.09239e-08 0.0
-2.03747e-08 -4.16665e-08 0.0
-2.43803e-08 -5.75217e-08 0.0
-1.63549e-08 -2.45456e-08 0.0
-2.30882e-08 -2.69036e-08 0.0
-2.64576e-08 -1.98966e-08 0.0
-2.1166e-08 -1.04761e-08 0.0
-5.04723e-08 -2.56854e-08 0.0
-3.30214e-08 -3.18525e-09 0.0
-5.9181e-08 -1.40845e-08 0.0
-2.84581e-08 -1.17939e-09 0.0
-5.13159e-08 -1.54599e-08 0.0
-5.01081e-08 1.90487e-09 0.0
-3.99779e-08 -4.36262e-09 0.0
-5.71146e-08 -3.68909e-09 0.0
-7.27736e-08 4.15688e-08 0.0
-8.47464e-08 -2.20603e-08 0.0
-7.06105e-08 -2.82467e-08 0.0
-5.06264e-08 -9.67699e-09 0.0
-6.04368e-08 -3.54781e-08 0.0
-4.89366e-08 -3.58303e-08 0.0
-4.92237e-08 -4.37764e-08 0.0
-5.39815e-08 -6.28219e-08 0.0
-6.45594e-08 -7.748e-08 0.0
-4.43616e-08 -6.6379e-08 0.0
-3.75665e-08 -5.26925e-08 0.0
-6.89343e-08 -1.1121e-07 0.0
-2.85331e-08 -4.66081e-08 0.0
-3.83768e-08 -7.39049e-08 0.0
-6.14166e-08 -9.87275e-08 0.0
-5.69778e-08 -9.261e-08 0.0
-6.49366e-08 -1.0799e-07 0.0
-4.11319e-08 -9.32855e-08 0.0
-3.38586e-08 -7.0686e-08 0.0
-7.04004e-08 -1.15957e-07 0.0
-5.05738e-08 -9.14757e-08 0.0
-3.65206e-08 -5.74986e-08 0.0
-3.17311e-08 -7.49122e-08 0.0
-4.48849e-08 -6.41373e-08 0.0
-1.18813e-08 -4.14799e-08 0.0
-3.02939e-08 -6.94041e-08 0.0
-2.1421e-08 -5.66859e-08 0.0
-1.84306e-08 -2.2911e-08 0.0
5.77528e-09 -1.09257e-08 0.0
-1.70518e-08 -7.0517e-09 0.0
1.731e-08 2.32594e-08 0.0
-1.32784e-08 2.9944e-09 0.0
3.43438e-09 1.17136e-08 0.0
-2.21743e-08 1.12512e-08 0.0
-2.93888e-10 2.08572e-08 0.0
-3.19448e-08 1.06245e-08 0.0
-2.70866e-08 1.96392e-08 0.0
-5.92484e-08 4.43969e-08 0.0
-6.22657e-08 7.53755e-08 0.0
-4.03379e-08 8.55521e-09 0.0
7.23153e-09 -5.91189e-08 0.0
-3.50122e-08 -7.61568e-09 0.0
-1.33197e-09 -2.28456e-08 0.0
-2.58449e-09 -5.06499e-08 0.0
-9.16695e-10 -3.26237e-08 0.0
-6.34109e-08 -8.12389e-08 0.0
-3.18494e-08 -6.91534e-08 0.0
-3.23632e-08 -4.47828e-08 0.0
-4.25718e-08 -6.11459e-08 0.0
-5.40024e-08 -7.67304e-08 0.0
-3.6502e-08 -4.7887e-08 0.0
-4.73892e-08 -7.61864e-08 0.0
-2.37267e-08 -5.58034e-08 0.0
-4.18338e-08 -7.90244e-08 0.0
-3.20861e-08 -8.41678e-08 0.0
-2.10851e-08 -5.54454e-08 0.0
-1.2828e-08 -6.9163e-08 0.0
-5.27904e-08 -1.35023e-07 0.0
-1.35297e-08 -5.60275e-08 0.0
-1.25897e-08 -4.36159e-08 0.0
-3.24069e-08 -9.8708e-08 0.0
-2.27807e-08 -6.4292e-08 0.0
-2.0322e-08 -6.00765e-08 0.0
-1.3441e-08 -4.93713e-08 0.0
-3.97175e-09 -3.43944e-08 0.0
-1.20881e-08 -4.64775e-08 0.0
-7.44515e-09 -5.21954e-08 0.0
3.42755e-09 -2.16656e-08 0.0
-2.18317e-09 -2.10847e-08 0.0
1.06696e-08 -1.49871e-08 0.0
-2.84091e-10 -3.62101e-09 0.0
2.17322e-08 1.8934e-08 0.0
7.75779e-09 1.77526e-08 0.0
2.67302e-08 2.81352e-08 0.0
1.86133e-08 1.56955e-08 0.0
1.62402e-08 1.4107e-08 0.0
1.88121e-08 2.23e-08 0.0
3.28131e-08 9.21846e-08 0.0
4.68262e-08 7.39446e-08 0.0
5.46227e-08 9.26939e-08 0.0
1.10812e-07 1.71313e-07 0.0
-1.84628e-09 -2.22417e-09 0.0
-3.7124e-08 2.87431e-08 0.0
-2.60769e-09 -8.13396e-09 0.0
7.36173e-08 8.98254e-08 0.0
-6.73901e-08 -3.42348e-08 0.0
-1.55514e-08 -2.0277e-08 0.0
-2.23478e-08 -2.91237e-08 0.0
-2.14819e-08 -2.27974e-08 0.0
-2.52319e-08 -3.17314e-08 0.0
-1.61017e-08 -1.81378e-08 0.0
-2.20657e-08 -3.06741e-08 0.0
-2.35716e-08 -3.62921e-08 0.0
-2.84601e-08 -3.5291e-08 0.0
-1.61764e-08 -3.25785e-08 0.0
-2.49768e-08 -3.90402e-08 0.0
-1.12153e-08 -5.33592e-08 0.0
-2.78102e-08 -6.33724e-08 0.0
-3.72942e-09 -7.61676e-08 0.0
-2.65352e-08 -1.03252e-07 0.0
4.08097e-09 -7.59489e-08 0.0
7.4446e-09 -4.56499e-08 0.0
-5.22213e-09 -7.07046e-08 0.0
3.94581e-09 -4.46944e-08 0.0
-1.17747e-08 -4.43178e-08 0.0
-4.87674e-12 -1.21191e-08 0.0
-3.83353e-09 -7.53298e-09 0.0
-2.72244e-09 -2.49388e-08 0.0
-8.48717e-10 -9.55772e-09 0.0
-6.97898e-09 -5.23606e-09 0.0
-4.12993e-09 -5.96011e-09 0.0
-7.52069e-09 1.43777e-10 0.0
-2.16283e-09 9.75642e-09 0.0
-4.09475e-09 4.5153e-09 0.0
8.645e-09 2.3454e-08 0.0
-1.38954e-08 2.65961e-08 0.0
3.87459e-09 2.22775e-08 0.0
-2.50707e-08 2.67855e-08 0.0
-2.5414e-08 2.62382e-08 0.0
-2.51357e-08 1.12308e-08 0.0
-2.85339e-08 4.12672e-08 0.0
-3.26484e-08 -1.95581e-08 0.0
4.82649e-08 6.18123e-08 0.0
2.33265e-08 1.03698e-07 0.0
-8.20499e-09 1.33892e-10 0.0
5.75133e-09 1.04104e-09 0.0
6.50193e-10 -3.76676e-09 0.0
-1.37936e-08 -2.34464e-08 0.0
-3.65562e-09 -4.46562e-09 0.0
-1.38096e-08 -6.4398e-09 0.0
-1.32101e-08 -7.1498e-09 0.0
-2.45232e-08 -2.22305e-08 0.0
-6.00196e-09 -1.03467e-08 0.0
-5.83352e-09 -2.1371e-08 0.0
-2.12486e-09 -1.70091e-08 0.0
8.58838e-10 -2.4719e-08 0.0
1.26733e-09 -1.91136e-08 0.0
8.52e-09 -4.12375e-08 0.0
1.36132e-09 -1.10882e-08 0.0
9.36959e-09 -6.66429e-08 0.0
2.68935e-09 -2.29886e-08 0.0
1.38414e-09 -1.95648e-08 0.0
3.34967e-09 -2.18614e-08 0.0
-1.49774e-09 -3.07809e-08 0.0
2.31109e-09 -1.116e-08 0.0
-3.03781e-09 -2.05202e-08 0.0
VECTORS omega float
-0.0114053 0.607532 0.0879376
-0.288124 0.0664988 -0.108194
-0.0101476 -0.102137 -0.00268217
0.0761979 -0.0682505 0.352588
0.312617 -0.0621894 0.0256404
0.0032092 -0.527114 0.0398225
-0.298779 0.0543938 0.076507
-0.0322768 0.487493 0.0200701
0.409934 -0.000556577 0.0545265
-0.339624 -0.0640097 0.0485359
-0.00968198 -0.537287 0.0389833
-0.0128388 0.557325 0.0117278
0.292503 -0.0452129 0.0137195
-0.250948 0.0498122 0.0989523
-0.0265043 -0.650763 0.0526256
0.00781756 0.623451 0.0299594
-0.251777 0.189177 0.254499
0.0177072 -0.771403 -0.0684917
0.00480643 0.199527 -0.042836
-0.101246 0.463086 0.25179
-0.0182824 -0.167934 0.0227146
-0.0931003 0.0150313 0.106064
0.0658351 -0.0161943 0.0452745
0.0158902 0.138489 0.0390855
-0.00950137 -0.083406 0.0614857
-0.0304055 0.0122583 0.0589296
0.00424043 0.0661342 0.0365358
0.0292018 0.00128008 0.0114842
-0.019502 -0.0497618 0.0853121
0.0236924 -0.000526779 0.173182
-0.0352447 -0.0108858 -0.0196075
-0.130868 -0.207742 0.107302
0.00644782 0.0413709 0.066165
-0.209405 0.193315 0.255446
0.260475 -0.0485171 -0.112101
0.0963969 -0.0407658 0.290373
-0.0147016 0.0742449 0.0151625
-0.000714829 -0.0936885 0.0167412
-0.0905803 0.0336297 0.30323
0.0121526 0.113947 -0.00318844
0.264593 -0.123017 0.287077
-0.0309602 -0.252125 -0.0495995
-0.245461 0.419383 0.0995801
-0.0459212 0.504335 0.0928305
0.335653 -0.422521 0.016656
-0.016315 -0.493369 0.0540836
-0.0726787 0.384958 0.155645
-0.181154 0.428294 -0.0176082
-0.0848256 -0.537932 0.253846
0.0568815 -0.355484 0.0652826
0.201776 0.486035 -0.0626303
0.208658 0.0819877 0.096196
0.423726 -0.676476 0.0939433
-0.981053 0.224052 -0.0365406
0.658309 0.334896 0.00623332
-0.0308805 -0.452721 0.0370549
0.261841 -0.0108916 -0.00121237
-0.176445 0.191272 0.0308834
0.0534763 0.0628985 -0.0584402
-0.0488095 -0.147489 0.0239639
0.124933 -0.0735432 0.0560646
-0.0060622 0.149795 0.0179241
-0.0905471 0.072583 0.0748672
0.0598044 -0.118601 0.0441797
0.0445391 -0.068757 0.0578677
-0.00917646 0.0908143 0.0223372
-0.0589396 0.0639559 0.138466
0.0860904 -0.0357509 0.0250811
0.0194565 -0.152638 0.0943758
-0.0852563 0.0336795 0.0308693
0.0813419 0.114198 -0.0311596
0.00042884 -0.0105024 0.0897757
-0.00395302 -0.142903 0.161506
-0.0983646 0.0333437 -0.16354
0.190811 -0.16907 0.106516
0.0381929 -0.0543511 0.0697373
-0.0900989 0.147279 -0.0231615
0.0622789 -0.226791 0.0192373
0.111505 -0.149488 -0.00246065