# vtk DataFile Version 2.0
Generated by lpp.py
ASCII
DATASET POLYDATA
POINTS 400 float
0.0013271 0.000444069 3.36586e-05
0.000912775 0.0012851 -1.66342e-05
0.000242734 0.000443358 -3.64628e-05
0.00183545 0.00127876 5.09221e-06
0.00226859 0.000435821 -1.24497e-05
0.00274164 0.0012879 4.63423e-05
0.0032475 0.000515715 4.67087e-05
0.00374562 0.00129132 -1.5404e-05
0.00460673 0.00119544 -2.0603e-05
0.00417362 0.00041728 3.04549e-05
0.00511708 0.000469662 4.04467e-05
0.00567095 0.00130813 -2.65834e-05
0.00664307 0.00128902 -2.02466e-06
0.00602261 0.000418573 -1.20537e-05
0.00693205 0.000444846 3.91278e-05
0.00824535 0.00117599 -1.82355e-06
0.00779488 0.000364653 3.24564e-05
0.00876684 0.000397836 -3.28708e-05
0.0093051 0.00138574 3.24568e-05
0.00975797 0.000490902 -2.76781e-05
0.0103884 0.00131214 -4.92787e-05
0.0113803 0.00139184 -4.32784e-06
0.0107659 0.000443948 -3.96086e-06
0.0117809 0.000485316 -1.32742e-05
0.0124079 0.00132895 1.95463e-05
0.0127822 0.000442339 1.3181e-05
0.0134354 0.00122577 3.75182e-05
0.0136147 0.00032956 1.89547e-05
0.0143546 0.0016191 1.99029e-05
0.0143659 0.000726882 -4.71808e-05
0.0156489 0.00128521 1.72248e-05
0.0152284 0.00042659 3.7231e-06
0.0165516 0.00131671 3.54547e-05
0.0161587 0.000503458 -4.85386e-05
0.0177972 0.00133125 -3.92382e-05
0.0171617 0.000538725 -3.8784e-05
0.0182415 0.000486008 3.096e-05
0.0199992 0.00131764 4.93031e-05
0.0189211 0.00128033 6.72355e-06
0.0192498 0.000430403 -3.72737e-05
0.000910507 0.00230597 5.14548e-06
0.00038671 0.00315932 -4.9345e-05
0.00207033 0.00294784 -3.17454e-05
0.00232524 0.00212026 -1.41959e-06
0.00292743 0.00285094 3.50109e-05
0.00325786 0.00201923 -3.46654e-05
0.00386836 0.00297743 -3.02218e-05
0.00412999 0.00209032 3.70504e-05
0.00498585 0.00300257 3.07542e-05
0.00497731 0.00196039 -2.23732e-05
0.00564656 0.00243808 -2.11247e-06
0.00623822 0.00307354 -3.67063e-05
0.00642514 0.0021332 3.11799e-05
0.00699187 0.00270962 -2.75116e-05
0.00731891 0.0019103 4.80419e-05
0.00772857 0.00291287 1.77683e-05
0.00828799 0.00219857 -3.97226e-05
0.00876639 0.00311872 4.55657e-05
0.00924905 0.0023071 1.80717e-05
0.00980616 0.00312825 -3.93388e-05
0.0101375 0.00222392 2.40231e-05
0.0107401 0.00309841 2.716e-05
0.0110978 0.00228211 -4.78087e-05
0.0116612 0.00309674 -4.25165e-05
0.0120605 0.00222626 -4.01526e-05
0.0126288 0.00312647 2.94528e-05
0.0131086 0.00223014 4.21294e-05
0.0136566 0.00314455 2.4953e-06
0.0141693 0.0024204 2.35941e-05
0.0146336 0.00314155 -2.89305e-05
0.015083 0.00224304 3.21045e-05
0.0156181 0.00308689 2.08022e-05
0.0160071 0.00209077 1.69816e-05
0.0165054 0.00284279 -1.31875e-05
0.01693 0.00207806 -2.13541e-05
0.0173598 0.00302248 -2.48084e-05
0.0178661 0.00224466 7.17441e-06
0.0184457 0.00302948 -3.11061e-05
0.0188639 0.00220956 -6.697e-06
0.0194358 0.00303969 1.88296e-05
0.0198543 0.00217896 2.40593e-05
0.00132153 0.00346696 4.11056e-07
0.00154635 0.00438082 -3.43082e-05
0.000522844 0.00405599 4.11872e-05
0.00225716 0.00383366 4.14547e-05
0.00263206 0.00468331 2.79416e-05
0.00314077 0.00368838 -1.57031e-06
0.00360437 0.00470066 5.32063e-06
0.00402343 0.00391635 -2.6529e-06
0.00459051 0.00494705 -3.58607e-05
0.00500024 0.00397236 -2.13321e-05
0.00566637 0.00479156 -4.97251e-05
0.0059756 0.00390423 -2.41619e-05
0.00667973 0.0045988 -2.57589e-05
0.00702374 0.00365607 -4.22335e-05
0.00774895 0.00462588 4.30556e-05
0.00796093 0.00368243 4.42331e-05
0.00877758 0.00405955 -4.39636e-05
0.00980138 0.00486961 4.93343e-05
0.00960904 0.0040005 4.05756e-05
0.00871141 0.00490664 -1.72291e-05
0.010424 0.00387981 -3.72271e-05
0.0107746 0.0046697 4.50596e-05
0.0112834 0.00394206 1.35023e-05
0.0119389 0.00475796 3.81834e-05
0.0121433 0.00389507 3.14585e-06
0.0129088 0.00493006 -2.4127e-05
0.0131335 0.00399603 1.0814e-05
0.0137689 0.00483818 -4.51984e-05
0.01419 0.00402785 1.00341e-06
0.0147134 0.00489071 6.87793e-06
0.0151587 0.0039577 1.87838e-05
0.0160848 0.00415482 4.33922e-05
0.0167823 0.00468953 2.18197e-05
0.0170341 0.00386902 -2.12721e-05
0.0176662 0.0046091 6.56493e-06
0.0179658 0.00377801 9.36883e-06
0.0187012 0.00453938 3.03201e-05
0.0194123 0.00392609 1.43967e-05
0.0197566 0.00479026 -2.66714e-05
0.000798158 0.0050004 1.15215e-05
0.00120383 0.00595128 1.46596e-05
0.000332451 0.00650313 -3.99128e-05
9.18465e-05 0.00571719 -3.26099e-05
0.00181914 0.00521819 -7.07934e-06
0.00214015 0.00645948 -2.06108e-05
0.00263705 0.00563278 3.54227e-05
0.00313539 0.00641146 -2.96496e-05
0.00359025 0.0056288 1.90715e-05
0.0044497 0.00591245 1.72497e-05
0.00536327 0.00576121 2.50127e-05
0.00595826 0.00650205 -4.27825e-05
0.00629837 0.00553446 2.43943e-05
0.00680164 0.00637469 -3.07296e-05
0.00720904 0.00549555 -2.4969e-05
0.00770912 0.00633519 1.47771e-05
0.0081823 0.00555924 -2.62417e-05
0.00864408 0.00633106 -3.20614e-05
0.00926205 0.00565897 -4.70071e-05
0.0101212 0.00574551 4.476e-05
0.0109357 0.00555177 -5.06646e-06
0.0113912 0.00651239 -4.22073e-05
0.0117633 0.00566875 2.60985e-05
0.0123419 0.00640654 1.83575e-05
0.0125259 0.00559959 -2.28987e-05
0.0132224 0.00609434 2.90979e-05
0.0141619 0.00577206 4.28851e-05
0.0151849 0.00589401 -1.46308e-05
0.0156839 0.00502152 -7.56683e-06
0.0160626 0.00623897 -4.83823e-05
0.0165216 0.0055192 2.89194e-05
0.016995 0.0063227 3.21564e-05
0.0173236 0.00537658 -4.85919e-05
0.0180834 0.00628276 -1.12464e-05
0.0181479 0.00535623 3.12852e-05
0.019299 0.0063611 2.46256e-05
0.0190631 0.00549196 -4.44854e-05
0.00127807 0.00681494 -2.73404e-05
0.00115553 0.00795946 -3.38667e-05
0.000614265 0.00726022 -4.2113e-05
0.000123952 0.00807634 1.49646e-05
0.001917 0.00742594 7.74856e-06
0.0020698 0.00829905 5.5329e-07
0.00284769 0.00725644 3.67542e-05
0.00294249 0.0082001 1.2865e-05
0.00376041 0.00772312 -4.70278e-05
0.00401055 0.0067376 -1.13161e-05
0.00473495 0.00768268 1.72877e-05
0.00506622 0.00677422 -4.33679e-05
0.00570102 0.00765945 7.98975e-06
0.00647679 0.00722425 -4.89198e-05
0.00705473 0.00808601 -1.8846e-05
0.0073737 0.00719518 -2.80691e-05
0.00793658 0.00787512 -4.34141e-05
0.00825374 0.00712223 2.59556e-05
0.00885748 0.00784569 -3.81694e-05
0.00942694 0.00692155 -2.37608e-06
0.00984811 0.0078264 -1.57412e-05
0.010416 0.00667487 -1.47472e-05
0.0107569 0.00823579 4.979e-05
0.011034 0.00735942 2.22644e-05
0.0117356 0.00821178 -4.55597e-05
0.0120496 0.00730218 -4.5975e-05
0.0128687 0.00785332 4.23607e-05
0.0130317 0.00699388 4.20701e-05
0.0138621 0.00781689 -5.04024e-06
0.0139153 0.00680005 1.64328e-05
0.0148655 0.00792267 -1.6913e-05
0.0149188 0.00691242 -4.21217e-05
0.0158341 0.00811088 -3.94419e-05
0.0159269 0.0071327 -1.21974e-05
0.0166957 0.00770115 -3.70828e-05
0.0175006 0.00715104 -3.33274e-05
0.0181684 0.00805579 -3.83096e-05
0.0185173 0.00717463 -2.02095e-05
0.0191895 0.0077817 -4.84051e-05
0.0197692 0.00712995 -3.46879e-05
0.00161362 0.00915037 2.66777e-05
0.000816775 0.0087585 -3.96098e-06
0.000747318 0.00962909 -1.72888e-05
0.00233414 0.00997648 2.41907e-05
0.00259615 0.00906511 4.87165e-05
0.00324495 0.00972712 7.50784e-06
0.00349242 0.00889128 -7.08428e-06
0.00420667 0.00954443 6.12283e-06
0.00437179 0.00858038 1.74262e-06
0.0051823 0.00943755 -2.81666e-05
0.00536755 0.00853086 -1.04316e-05
0.00612927 0.00937677 9.49774e-06
0.00624789 0.00848869 -4.45245e-05
0.00696007 0.0090266 3.54547e-06
0.00742237 0.00986971 -2.7703e-05
0.00780435 0.00871402 -4.92713e-05
0.00821887 0.00951158 1.26179e-05
0.00872394 0.00878909 4.93873e-05
0.00911845 0.00970301 -4.18982e-05
0.00973462 0.00885989 -9.33208e-06
0.0106869 0.00928982 -3.72943e-05
0.0113928 0.00989421 1.32074e-05
0.0116305 0.009081 3.24679e-05
0.0123168 0.00976136 -1.82378e-05
0.0125684 0.00876218 4.17083e-05
0.0132337 0.00962593 2.0062e-05
0.0135697 0.00880537 -3.30909e-05
0.0140558 0.00959971 -4.57402e-05
0.0145592 0.00882837 -3.07794e-05
0.0149325 0.00967055 4.85236e-05
0.0155087 0.00898108 -3.2558e-05
0.0158264 0.0099402 -4.73944e-05
0.0164806 0.00883735 -2.5672e-05
0.0167189 0.0096931 -3.5681e-05
0.0173352 0.00835094 2.81917e-06
0.0174415 0.00923192 -4.5525e-06
0.0199718 0.00908488 -3.41589e-05
0.0183371 0.00993147 1.70983e-05
0.0183584 0.00898667 -3.29151e-05
0.0191651 0.00955473 4.46827e-05
0.0191641 0.00861106 -3.50995e-05
0.00162879 0.0115949 -2.75196e-05
0.00144167 0.0100978 -3.628e-05
0.00102516 0.0108599 -3.81409e-05
0.000118047 0.0110251 4.26166e-05
0.00193513 0.0107566 2.8646e-05
0.00257438 0.0113924 1.79805e-07
0.00299136 0.0105897 -3.0738e-05
0.00354885 0.0113159 1.32908e-05
0.00388725 0.0104448 3.19371e-06
0.00451225 0.0112756 -4.05009e-05
0.00490614 0.0103851 2.58338e-05
0.00545251 0.0112335 5.57899e-06
0.0058234 0.0102247 3.55182e-05
0.00635586 0.0110317 -2.60959e-05
0.00663838 0.0101976 1.90003e-05
0.00728673 0.0108287 2.40728e-05
0.00807034 0.0115376 -1.09524e-05
0.00824496 0.010508 -2.41459e-05
0.00922783 0.0106619 1.14157e-05
0.00901867 0.0115587 -2.28614e-05
0.00999131 0.0100987 7.96265e-06
0.0100758 0.0110617 4.36203e-05
0.0107937 0.0104747 4.40746e-05
0.0109958 0.0113642 4.26806e-05
0.0117396 0.0107243 1.59016e-05
0.0126705 0.0106161 -4.05226e-06
0.0131468 0.0112628 -3.49974e-05
0.0135967 0.0104326 -2.12959e-05
0.0139608 0.0112399 -3.47829e-05
0.0145126 0.0103614 -6.10015e-06
0.0148724 0.0112149 -4.9699e-05
0.0158356 0.0110014 -3.49785e-05
0.0166088 0.0105625 -3.04875e-05
0.0166512 0.0115683 2.14731e-05
0.0173435 0.01107 4.23831e-06
0.0174782 0.0102045 1.54215e-05
0.0183187 0.0109069 -4.02054e-05
0.0191027 0.01043 -1.5365e-05
0.0192386 0.01131 -1.60515e-05
0.0199583 0.0101228 -4.17269e-05
0.00141576 0.012654 1.39627e-05
0.000709898 0.0118007 -9.96495e-06
0.000475516 0.0127299 2.195e-05
0.00228849 0.0123216 1.50647e-05
0.00296983 0.0130597 -2.83946e-05
0.00321314 0.012145 2.84116e-05
0.00406778 0.0129439 -8.8818e-06
0.00409216 0.0120335 -1.71454e-05
0.00496927 0.0130884 4.3363e-05
0.00506543 0.012153 3.19528e-05
0.005818 0.0129013 -3.24457e-07
0.00608739 0.0119604 1.74786e-05
0.00667824 0.012646 -2.9504e-05
0.00710091 0.0117943 2.61725e-05
0.0075904 0.0126996 -7.28073e-06
0.00857526 0.0124189 2.21972e-05
0.00931556 0.0130112 3.4178e-05
0.00984121 0.0119908 -3.43726e-05
0.0101578 0.0129279 2.4284e-05
0.0107789 0.0122974 4.99362e-05
0.0111766 0.0131385 1.79808e-05
0.011933 0.0117312 3.01021e-05
0.0120934 0.0128011 -4.81269e-05
0.0128428 0.0119914 3.49515e-06
0.0131457 0.0128313 8.09002e-06
0.0137924 0.0121019 -1.27408e-05
0.0142842 0.0129713 1.51186e-05
0.0147511 0.0121961 -2.52694e-05
0.0154923 0.0127981 -2.24734e-05
0.0156124 0.0118901 -4.84058e-07
0.0163484 0.0124315 2.73575e-05
0.0171629 0.0123297 2.6071e-05
0.0172581 0.013197 -3.7354e-05
0.0179137 0.0118429 -4.54593e-05
0.017988 0.0127926 -4.8395e-05
0.0187289 0.0130942 7.82155e-06
0.0188772 0.0121959 -1.47463e-05
0.0195696 0.0129237 -3.72359e-05
0.0198145 0.01205 -4.13942e-05
0.00113129 0.0135726 -4.1589e-05
0.000979428 0.0145442 -1.31753e-05
0.00019864 0.0136116 -1.17246e-06
0.00192909 0.014566 -5.27218e-06
0.00203641 0.0133431 2.70269e-05
0.0026952 0.0140035 -4.69919e-05
0.00310143 0.0148444 2.49655e-05
0.00363325 0.0138003 2.96183e-05
0.00400946 0.0146146 1.43924e-05
0.00462329 0.0139047 -3.62044e-05
0.00523881 0.0145401 2.52958e-05
0.0055653 0.0137733 -4.96651e-05
0.00609529 0.0145261 -1.66336e-06
0.00647521 0.0136459 -6.05535e-06
0.00701663 0.0145721 -2.79437e-05
0.00745941 0.0137017 1.57621e-06
0.00807622 0.0145647 -3.93501e-06
0.0084102 0.0134475 4.44824e-05
0.00914563 0.0140481 4.05064e-05
0.00978993 0.0147258 -8.94147e-06
0.00898037 0.014982 -1.15952e-07
0.0101088 0.0138507 -3.1985e-05
0.0106303 0.0146536 2.67646e-06
0.011043 0.0139564 8.79731e-06
0.0115145 0.0146908 -1.90989e-05
0.0118342 0.0137575 1.18363e-05
0.0123512 0.0144656 -1.70971e-05
0.0127165 0.0136428 2.04004e-05
0.0132762 0.0143819 -4.99115e-05
0.0136679 0.0135853 4.34762e-05
0.014214 0.0146395 2.36495e-05
0.0145133 0.0138164 1.50053e-05
0.0151606 0.0145936 -1.68329e-05
0.015395 0.013695 2.59986e-05
0.0161695 0.0144174 -4.8797e-05
0.0163046 0.0133868 -2.94781e-05
0.0171794 0.0141678 -3.80464e-05
0.0180343 0.0146261 6.36771e-07
0.0180931 0.0136986 -4.54767e-05
0.0199773 0.0145336 -2.39016e-05
0.0189692 0.0145419 -3.38088e-05
0.0192961 0.013738 6.46138e-06
0.00146779 0.0153981 3.1619e-05
0.00106292 0.0162516 -3.75421e-05
0.000545564 0.0153938 1.65265e-05
0.000174453 0.0162431 3.22872e-05
0.00201769 0.0162626 -2.29225e-05
0.00239453 0.0154159 -4.48401e-05
0.00304452 0.0161904 -1.88293e-05
0.00377695 0.0155208 5.22691e-06
0.00402565 0.0163414 -2.84806e-06
0.00467709 0.0152443 3.75063e-05
0.00494728 0.0161968 -2.57249e-06
0.00561081 0.0153349 -3.31627e-05
0.00596862 0.0162179 4.29286e-05
0.00659163 0.0154126 3.83299e-05
0.00695729 0.0162873 8.05502e-06
0.00751205 0.0153691 -1.60873e-07
0.00783625 0.0162826 4.44584e-05
0.00842612 0.0156743 1.77529e-05
0.0092318 0.0160937 1.78253e-05
0.0099713 0.0155483 1.34032e-05
0.0100586 0.0163674 -1.78006e-05
0.010813 0.016349 3.69213e-05
0.010976 0.015496 -2.36735e-05
0.0116688 0.0162678 -3.81553e-05
0.0120579 0.0154057 -3.46021e-05
0.0126668 0.0162179 4.68532e-05
0.0130852 0.0153172 -4.47667e-06
0.0136591 0.0163158 -3.82493e-05
0.0140408 0.0155214 4.44816e-05
0.014575 0.0162971 2.60965e-05
0.0149566 0.015479 -1.42244e-05
0.0154934 0.0162594 -2.63927e-05
0.0158922 0.0153997 1.45032e-05
0.016373 0.0162682 1.42827e-05
0.0169135 0.015225 8.61202e-06
0.0172935 0.0162316 1.04172e-05
0.0178257 0.0154405 -1.6534e-05
0.0182976 0.0162461 1.14277e-05
0.0186969 0.0153946 3.47044e-05
0.0192723 0.0162476 4.63278e-05
0.0196259 0.0154169 -1.23126e-05
VERTICES 400 800
1 0
1 1
1 2
1 3
1 4
1 5
1 6
1 7
1 8
1 9
1 10
1 11
1 12
1 13
1 14
1 15
1 16
1 17
1 18
1 19
1 20
1 21
1 22
1 23
1 24
1 25
1 26
1 27
1 28
1 29
1 30
1 31
1 32
1 33
1 34
1 35
1 36
1 37
1 38
1 39
1 40
1 41
1 42
1 43
1 44
1 45
1 46
1 47
1 48
1 49
1 50
1 51
1 52
1 53
1 54
1 55
1 56
1 57
1 58
1 59
1 60
1 61
1 62
1 63
1 64
1 65
1 66
1 67
1 68
1 69
1 70
1 71
1 72
1 73
1 74
1 75
1 76
1 77
1 78
1 79
1 80
1 81
1 82
1 83
1 84
1 85
1 86
1 87
1 88
1 89
1 90
1 91
1 92
1 93
1 94
1 95
1 96
1 97
1 98
1 99
1 100
1 101
1 102
1 103
1 104
1 105
1 106
1 107
1 108
1 109
1 110
1 111
1 112
1 113
1 114
1 115
1 116
1 117
1 118
1 119
1 120
1 121
1 122
1 123
1 124
1 125
1 126
1 127
1 128
1 129
1 130
1 131
1 132
1 133
1 134
1 135
1 136
1 137
1 138
1 139
1 140
1 141
1 142
1 143
1 144
1 145
1 146
1 147
1 148
1 149
1 150
1 151
1 152
1 153
1 154
1 155
1 156
1 157
1 158
1 159
1 160
1 161
1 162
1 163
1 164
1 165
1 166
1 167
1 168
1 169
1 170
1 171
1 172
1 173
1 174
1 175
1 176
1 177
1 178
1 179
1 180
1 181
1 182
1 183
1 184
1 185
1 186
1 187
1 188
1 189
1 190
1 191
1 192
1 193
1 194
1 195
1 196
1 197
1 198
1 199
1 200
1 201
1 202
1 203
1 204
1 205
1 206
1 207
1 208
1 209
1 210
1 211
1 212
1 213
1 214
1 215
1 216
1 217
1 218
1 219
1 220
1 221
1 222
1 223
1 224
1 225
1 226
1 227
1 228
1 229
1 230
1 231
1 232
1 233
1 234
1 235
1 236
1 237
1 238
1 239
1 240
1 241
1 242
1 243
1 244
1 245
1 246
1 247
1 248
1 249
1 250
1 251
1 252
1 253
1 254
1 255
1 256
1 257
1 258
1 259
1 260
1 261
1 262
1 263
1 264
1 265
1 266
1 267
1 268
1 269
1 270
1 271
1 272
1 273
1 274
1 275
1 276
1 277
1 278
1 279
1 280
1 281
1 282
1 283
1 284
1 285
1 286
1 287
1 288
1 289
1 290
1 291
1 292
1 293
1 294
1 295
1 296
1 297
1 298
1 299
1 300
1 301
1 302
1 303
1 304
1 305
1 306
1 307
1 308
1 309
1 310
1 311
1 312
1 313
1 314
1 315
1 316
1 317
1 318
1 319
1 320
1 321
1 322
1 323
1 324
1 325
1 326
1 327
1 328
1 329
1 330
1 331
1 332
1 333
1 334
1 335
1 336
1 337
1 338
1 339
1 340
1 341
1 342
1 343
1 344
1 345
1 346
1 347
1 348
1 349
1 350
1 351
1 352
1 353
1 354
1 355
1 356
1 357
1 358
1 359
1 360
1 361
1 362
1 363
1 364
1 365
1 366
1 367
1 368
1 369
1 370
1 371
1 372
1 373
1 374
1 375
1 376
1 377
1 378
1 379
1 380
1 381
1 382
1 383
1 384
1 385
1 386
1 387
1 388
1 389
1 390
1 391
1 392
1 393
1 394
1 395
1 396
1 397
1 398
1 399
POINT_DATA 400
VECTORS f float
3.36946e-09 -2.1179e-10 0.0
7.88023e-09 -3.54476e-09 0.0
3.76084e-10 -1.58071e-09 0.0
6.0022e-09 1.84829e-10 0.0
3.42703e-09 -3.63214e-10 0.0
5.15252e-09 -6.88459e-10 0.0
4.1356e-09 -3.61534e-10 0.0
5.77784e-09 -6.64132e-10 0.0
3.86896e-09 8.3438e-10 0.0
2.95201e-09 3.98394e-10 0.0
3.74238e-09 5.60797e-10 0.0
9.88226e-09 1.09533e-09 0.0
1.0639e-08 -8.13356e-10 0.0
2.65965e-09 -2.47974e-10 0.0
1.58527e-09 -1.74204e-09 0.0
1.51518e-08 2.69033e-09 0.0
-3.50927e-10 1.50206e-09 0.0
-9.12108e-10 -1.76074e-09 0.0
1.15449e-08 8.17004e-09 0.0
1.97709e-09 2.80107e-09 0.0
1.09463e-08 5.51441e-09 0.0
1.24702e-08 1.16779e-09 0.0
2.28648e-09 1.55075e-09 0.0
6.42915e-09 1.41742e-10 0.0
1.32418e-08 -2.83257e-09 0.0
4.28833e-09 -1.4659e-09 0.0
1.33588e-08 -5.48185e-09 0.0
2.71707e-09 -1.76585e-09 0.0
1.30222e-08 -6.86145e-09 0.0
7.35917e-09 -4.01164e-09 0.0
7.45984e-09 -2.64346e-09 0.0
4.2331e-09 -3.85841e-09 0.0
8.68469e-09 -7.41863e-10 0.0
3.19079e-09 -1.22427e-09 0.0
7.72966e-09 -2.94863e-09 0.0
3.32961e-09 -1.49966e-09 0.0
1.81371e-09 -2.79694e-09 0.0
1.02276e-08 1.14822e-09 0.0
8.64846e-09 -3.18144e-09 0.0
4.44872e-10 -2.24353e-09 0.0
1.66288e-08 -3.82364e-09 0.0
1.63181e-08 1.8546e-09 0.0
8.45249e-09 8.29366e-10 0.0
9.22975e-09 1.29478e-10 0.0
6.13038e-09 -9.9483e-10 0.0
7.67374e-09 -2.15537e-09 0.0
8.98116e-09 -3.51941e-09 0.0
9.06152e-09 -5.23026e-10 0.0
2.11297e-08 -1.86834e-09 0.0
1.08238e-08 1.17129e-09 0.0
1.38483e-08 -2.13806e-09 0.0
2.06598e-08 -1.71218e-09 0.0
1.72419e-08 -3.79245e-10 0.0
1.33e-08 1.33153e-09 0.0
1.79324e-08 3.98509e-10 0.0
1.62094e-08 7.48401e-12 0.0
3.84145e-08 2.08023e-09 0.0
2.7706e-08 4.49571e-09 0.0
1.91391e-08 6.46073e-09 0.0
3.03562e-08 1.0622e-08 0.0
2.18084e-08 8.50546e-09 0.0
2.10489e-08 4.37121e-09 0.0
1.91197e-08 3.01875e-09 0.0
2.67093e-08 2.32173e-10 0.0
1.72914e-08 -1.56754e-09 0.0
2.73572e-08 -3.57388e-09 0.0
2.44311e-08 -6.35632e-09 0.0
2.75474e-08 -6.98584e-09 0.0
1.43542e-08 -4.69854e-09 0.0
2.41508e-08 -9.42635e-09 0.0
1.94323e-08 -9.41471e-09 0.0
2.81522e-08 -1.36738e-08 0.0
1.51767e-08 -7.67616e-09 0.0
1.84997e-08 -8.82102e-09 0.0
1.6545e-08 -4.17404e-09 0.0
1.83809e-08 -5.10413e-09 0.0
2.63315e-08 -7.28719e-09 0.0
1.90321e-08 -4.16921e-09 0.0
2.16588e-08 -4.39632e-09 0.0
2.43069e-08 -3.49411e-09 0.0
2.21787e-08 4.68866e-10 0.0
2.03589e-08 4.89506e-09 0.0
1.48249e-08 3.12868e-09 0.0
1.61208e-08 3.45876e-09 0.0
1.32822e-08 1.29099e-09 0.0
1.41024e-08 2.33915e-09 0.0
9.62313e-09 -1.29573e-09 0.0
1.11111e-08 -1.51457e-09 0.0
1.28678e-08 -3.08738e-09 0.0
2.07138e-08 -2.13894e-09 0.0
1.76003e-08 -3.34803e-09 0.0
1.99766e-08 -1.17667e-09 0.0
1.1635e-08 -1.63958e-09 0.0
2.05448e-08 1.59285e-09 0.0
1.85172e-08 7.32448e-10 0.0
2.66002e-08 3.42491e-09 0.0
1.77404e-08 2.07751e-09 0.0
2.1429e-08 3.38752e-09 0.0
2.31576e-08 6.85712e-09 0.0
1.915e-08 6.52701e-09 0.0
1.4852e-08 3.11029e-09 0.0
1.76855e-08 2.84305e-09 0.0
1.74948e-08 2.71011e-09 0.0
1.80762e-08 2.32369e-09 0.0
2.4686e-08 -5.46614e-09 0.0
1.83861e-08 -1.92887e-09 0.0
2.58985e-08 -4.51472e-09 0.0
3.71034e-08 -7.23371e-09 0.0
2.06449e-08 -5.63541e-09 0.0
3.27594e-08 -9.61121e-09 0.0
2.97271e-08 -8.78644e-09 0.0
2.92177e-08 -1.11807e-08 0.0
2.54126e-08 -7.70718e-09 0.0
1.8765e-08 -6.35278e-09 0.0
2.78049e-08 -4.85775e-09 0.0
2.10397e-08 -3.34405e-09 0.0
2.80598e-08 -4.1469e-09 0.0
4.04111e-08 -2.46029e-09 0.0
1.84552e-08 -1.21107e-09 0.0
3.02577e-08 2.98886e-09 0.0
3.1807e-08 6.50505e-09 0.0
2.34849e-08 6.4074e-09 0.0
1.52604e-08 2.96562e-09 0.0
2.1932e-08 4.63459e-09 0.0
1.90704e-08 5.65026e-09 0.0
3.03329e-08 1.14368e-08 0.0
1.6559e-08 6.00735e-09 0.0
1.63048e-08 4.17741e-09 0.0
1.93729e-08 -3.9844e-11 0.0
1.18186e-08 -1.07449e-09 0.0
2.16109e-08 3.57725e-09 0.0
1.12133e-08 2.6637e-09 0.0
9.96128e-09 1.951e-09 0.0
1.63161e-08 4.35336e-09 0.0
1.73206e-08 3.07734e-09 0.0
1.81801e-08 2.74618e-09 0.0
1.44861e-08 2.72171e-09 0.0
1.9198e-08 3.45745e-09 0.0
1.67734e-08 2.07596e-09 0.0
1.56825e-08 5.53746e-09 0.0
1.64213e-08 1.40098e-09 0.0
2.24992e-08 -5.66692e-09 0.0
1.81969e-08 -5.17192e-09 0.0
2.02716e-08 -6.21167e-09 0.0
1.31462e-08 -3.39878e-09 0.0
2.20561e-08 -7.36245e-09 0.0
3.60869e-08 -1.22691e-08 0.0
3.04385e-08 -8.66748e-09 0.0
2.47956e-08 -7.37597e-09 0.0
2.64618e-08 -7.79481e-09 0.0
2.47902e-08 -9.44896e-09 0.0
2.11609e-08 -7.789e-09 0.0
1.66145e-08 -6.87549e-09 0.0
3.7775e-08 -2.42423e-09 0.0
2.53584e-08 -2.22527e-09 0.0
2.44131e-08 1.57882e-09 0.0
2.51346e-08 -9.57195e-10 0.0
1.85233e-08 5.86545e-09 0.0
3.49657e-08 1.18947e-08 0.0
1.90038e-08 4.72306e-09 0.0
3.91682e-08 9.7654e-09 0.0
2.73275e-08 1.01318e-08 0.0
2.14305e-08 8.50576e-09 0.0
3.34708e-08 1.03669e-08 0.0
2.406e-08 9.30333e-09 0.0
2.94981e-08 1.024e-08 0.0
2.30677e-08 9.20089e-10 0.0
2.49324e-08 1.08039e-08 0.0
2.92741e-08 1.25462e-08 0.0
2.59351e-08 1.07616e-08 0.0
1.85521e-08 4.79742e-09 0.0
2.42388e-08 7.00286e-09 0.0
1.5777e-08 2.95094e-09 0.0
1.09143e-08 2.08267e-09 0.0
1.43341e-08 3.17403e-09 0.0
2.41718e-08 3.10772e-09 0.0
2.63986e-08 2.30304e-09 0.0
1.94528e-08 9.37797e-11 0.0
2.85249e-08 1.93683e-09 0.0
2.48659e-08 -5.88059e-09 0.0
1.38121e-08 -1.17209e-09 0.0
2.00143e-08 -5.23887e-09 0.0
2.47211e-08 -6.62556e-09 0.0
1.80387e-08 -5.07265e-09 0.0
1.58741e-08 -5.06276e-09 0.0
3.05726e-08 -7.80515e-09 0.0
2.1665e-08 -7.88369e-09 0.0
2.32886e-08 -4.84542e-09 0.0
3.52809e-08 -8.16083e-09 0.0
2.77649e-08 -5.91467e-09 0.0
2.79028e-08 -8.17236e-09 0.0
2.93601e-08 -5.65957e-09 0.0
3.61047e-08 -4.56509e-09 0.0
2.83203e-08 1.53143e-09 0.0
3.80583e-08 -2.84792e-10 0.0
2.37323e-08 5.34865e-09 0.0
2.77309e-08 5.82496e-09 0.0
3.46633e-08 1.43946e-08 0.0
1.66801e-08 5.92694e-09 0.0
2.69948e-08 1.06758e-08 0.0
2.97931e-08 1.44657e-08 0.0
3.04993e-08 1.30976e-08 0.0
2.02808e-08 9.82278e-09 0.0
2.06186e-08 9.36664e-09 0.0
2.81614e-08 1.38044e-08 0.0
3.97767e-08 1.80177e-08 0.0
2.13816e-08 9.97828e-09 0.0
2.67792e-08 1.21204e-08 0.0
2.27682e-08 1.00967e-08 0.0
1.30149e-08 6.06678e-09 0.0
1.92035e-08 6.67423e-09 0.0
2.44713e-08 7.74338e-09 0.0
1.47726e-08 2.15168e-09 0.0
1.7922e-08 2.34537e-09 0.0
1.68566e-08 1.9313e-09 0.0
2.24704e-08 -9.36627e-10 0.0
2.9567e-08 -1.91123e-09 0.0
2.61355e-08 -5.11656e-09 0.0
1.48303e-08 -2.24346e-09 0.0
1.67249e-08 -2.61034e-09 0.0
2.7935e-08 -3.38916e-09 0.0
2.6825e-08 -5.57999e-09 0.0
1.17025e-08 -1.53288e-09 0.0
2.30983e-08 -5.15553e-09 0.0
1.34669e-08 -3.30999e-09 0.0
2.43896e-08 -3.9565e-09 0.0
1.72419e-08 -7.16157e-10 0.0
2.23142e-08 -4.24191e-09 0.0
2.77064e-08 -5.7439e-09 0.0
2.39503e-08 -3.33069e-09 0.0
1.56489e-08 -5.98621e-10 0.0
2.32978e-08 -2.8249e-09 0.0
2.50466e-08 -5.93497e-11 0.0
3.92744e-08 1.09402e-08 0.0
2.51505e-08 5.93701e-09 0.0
3.1603e-08 5.06423e-09 0.0
2.78904e-08 7.80384e-09 0.0
2.21201e-08 5.68907e-09 0.0
2.78298e-08 1.5618e-08 0.0
2.06347e-08 9.51644e-09 0.0
2.30176e-08 1.11281e-08 0.0
2.25704e-08 1.02458e-08 0.0
1.71871e-08 8.72511e-09 0.0
3.04974e-08 1.69967e-08 0.0
1.93358e-08 9.98574e-09 0.0
2.10493e-08 1.12475e-08 0.0
3.43531e-08 1.77131e-08 0.0
2.24657e-08 1.12457e-08 0.0
3.66694e-08 1.82132e-08 0.0
1.9055e-08 8.77441e-09 0.0
1.98699e-08 8.55415e-09 0.0
2.02671e-08 6.69015e-09 0.0
1.44003e-08 4.60807e-09 0.0
1.9622e-08 6.48933e-09 0.0
1.29401e-08 -4.37188e-09 0.0
2.5515e-08 2.06358e-09 0.0
1.924e-08 -3.35987e-09 0.0
1.40433e-08 -5.26306e-09 0.0
1.75511e-08 -2.27862e-09 0.0
1.73531e-08 -2.64374e-09 0.0
1.44008e-08 -1.31814e-09 0.0
1.79247e-08 -1.62905e-09 0.0
1.93112e-08 -1.68102e-09 0.0
1.35733e-08 -1.18685e-09 0.0
1.14855e-08 -9.37063e-10 0.0
2.19142e-08 -2.95445e-09 0.0
9.20516e-09 -4.52685e-10 0.0
1.30246e-08 -2.34728e-09 0.0
2.00318e-08 -2.29433e-09 0.0
1.69344e-08 -1.17066e-09 0.0
1.98569e-08 -6.29994e-10 0.0
1.8037e-08 1.9162e-09 0.0
1.3059e-08 1.81311e-09 0.0
2.51734e-08 2.26726e-09 0.0
2.8492e-08 6.88113e-09 0.0
2.01647e-08 6.02747e-09 0.0
2.39609e-08 8.6926e-09 0.0
2.70031e-08 1.01759e-08 0.0
2.28215e-08 1.3305e-08 0.0
3.0071e-08 1.55189e-08 0.0
2.18753e-08 1.14798e-08 0.0
2.76333e-08 1.50102e-08 0.0
3.19841e-08 1.65919e-08 0.0
2.37146e-08 1.23747e-08 0.0
2.49346e-08 1.33323e-08 0.0
2.02222e-08 1.02067e-08 0.0
1.27124e-08 5.85215e-09 0.0
2.92401e-08 1.39726e-08 0.0
1.67453e-08 6.3012e-09 0.0
2.21984e-08 8.19218e-09 0.0
1.30565e-08 3.43403e-09 0.0
1.97367e-08 3.67047e-09 0.0
2.37737e-08 -5.82347e-09 0.0
1.85735e-08 -1.15849e-08 0.0
5.88274e-09 -3.12735e-10 0.0
1.0842e-08 -4.74593e-09 0.0
5.89956e-09 -2.31555e-10 0.0
1.04903e-08 -1.84571e-09 0.0
4.5385e-09 9.635e-10 0.0
1.92928e-08 -1.64574e-09 0.0
1.23529e-08 -1.51872e-09 0.0
9.55861e-09 -1.17085e-09 0.0
1.26283e-08 -1.25961e-09 0.0
1.61843e-08 -1.03196e-09 0.0
9.20039e-09 -7.20424e-10 0.0
1.56853e-08 -2.39064e-10 0.0
9.50407e-09 -9.13373e-10 0.0
1.53864e-08 -9.83263e-10 0.0
1.43501e-08 1.66494e-09 0.0
1.04893e-08 1.77125e-09 0.0
1.22398e-08 2.87054e-09 0.0
3.22371e-08 5.44715e-09 0.0
1.13439e-08 2.94981e-09 0.0
1.08414e-08 4.1565e-09 0.0
2.63826e-08 1.03771e-08 0.0
2.03952e-08 9.27957e-09 0.0
1.99665e-08 8.91067e-09 0.0
2.27047e-08 1.44159e-08 0.0
1.36682e-08 9.07556e-09 0.0
1.62385e-08 8.36214e-09 0.0
1.56264e-08 7.17458e-09 0.0
1.68381e-08 8.51343e-09 0.0
1.98529e-08 1.06102e-08 0.0
1.61967e-08 8.34984e-09 0.0
2.10613e-08 1.20596e-08 0.0
1.46153e-08 6.75453e-09 0.0
2.04196e-08 8.30821e-09 0.0
1.07227e-08 3.03691e-09 0.0
1.33456e-08 4.84305e-09 0.0
1.33637e-08 1.76632e-09 0.0
1.74519e-08 -3.04873e-09 0.0
1.56132e-08 -5.94984e-09 0.0
1.63529e-08 -1.16954e-08 0.0
1.44556e-08 -2.59119e-08 0.0
1.83966e-08 -1.0964e-08 0.0
1.45145e-08 -9.59968e-09 0.0
4.85987e-09 -1.09508e-09 0.0
4.59103e-10 -1.28342e-08 0.0
2.05995e-08 -1.86287e-09 0.0
5.04376e-09 9.13293e-10 0.0
6.38376e-09 1.17947e-09 0.0
6.3707e-09 8.99761e-10 0.0
7.36305e-09 -1.00299e-10 0.0
5.20565e-09 -1.67462e-10 0.0
7.84874e-09 -1.22633e-09 0.0
8.72153e-09 -6.8752e-10 0.0
6.72523e-09 -5.81073e-10 0.0
6.68373e-09 -5.07261e-10 0.0
6.97353e-09 -6.043e-10 0.0
8.18359e-09 -4.12014e-10 0.0
1.06687e-08 -8.35547e-10 0.0
1.21165e-08 3.57092e-10 0.0
1.77337e-08 2.24717e-09 0.0
1.28103e-08 2.59164e-09 0.0
8.66252e-09 2.15805e-09 0.0
1.35602e-08 3.83007e-09 0.0
1.88745e-08 1.09236e-08 0.0
1.35862e-08 5.53772e-09 0.0
1.26699e-08 5.78628e-09 0.0
8.07136e-09 3.93363e-09 0.0
3.63231e-09 1.27293e-09 0.0
9.61152e-09 6.98796e-09 0.0
3.41528e-09 2.43774e-09 0.0
5.22137e-09 1.65778e-09 0.0
1.08889e-08 4.97403e-09 0.0
8.13865e-09 4.25692e-09 0.0
1.21563e-08 5.21362e-09 0.0
4.59928e-09 2.95097e-09 0.0
1.63032e-08 6.80893e-09 0.0
1.14734e-08 1.78407e-09 0.0
1.6981e-08 -5.48227e-10 0.0
1.29971e-08 -7.21489e-10 0.0
1.49068e-08 -2.04539e-09 0.0
4.03183e-09 1.83984e-09 0.0
1.11155e-08 -1.09109e-08 0.0
3.38826e-09 -2.65255e-10 0.0
-2.80478e-09 -1.17176e-08 0.0
-1.0521e-09 -1.4042e-08 0.0
4.92574e-09 -1.83152e-09 0.0
-1.1817e-10 -7.11704e-10 0.0
2.75498e-10 4.40398e-11 0.0
6.14982e-09 1.06594e-09 0.0
1.06253e-09 3.28035e-10 0.0
3.19837e-09 7.52864e-10 0.0
1.75641e-09 -2.94316e-10 0.0
5.67047e-09 -7.35125e-10 0.0
1.3418e-09 -4.49866e-10 0.0
3.79838e-09 -2.30362e-10 0.0
1.87439e-09 -1.63584e-10 0.0
3.92411e-09 -1.76376e-10 0.0
2.1198e-09 3.62528e-10 0.0
5.64059e-09 3.55757e-10 0.0
1.24192e-09 7.18065e-11 0.0
9.89033e-09 1.3555e-09 0.0
3.17775e-09 -6.14688e-11 0.0
3.92508e-09 5.03297e-10 0.0
3.97667e-09 1.23401e-09 0.0
7.25172e-09 2.86281e-09 0.0
3.56801e-09 1.91523e-09 0.0
6.46058e-09 3.86758e-09 0.0
VECTORS omega float
-0.00215325 -0.0719978 0.0302117
0.00413869 0.0544957 -0.0379113
0.00109358 0.00800445 -0.00770853
-0.00106911 -0.057085 0.00687971
9.20753e-05 0.0643865 0.0144237
0.0355144 0.056226 0.0233914
-0.00895841 -0.0666045 0.0082593
-0.0494863 -0.0145604 0.0177471
0.0541964 0.0125171 0.0146886
-0.000139828 0.0733062 0.00437976
-0.0010866 -0.0724078 0.0111047
-0.0318018 0.0242885 0.00405738
0.0371755 -0.0278953 0.0381718
-0.00169182 0.0766672 0.0124577
-0.000645601 -0.0677827 0.00871229
0.0227089 -0.00580647 0.0740183
0.00266021 0.0790145 -0.0190026
0.000532388 -0.037711 -0.0136621
0.0646897 -0.168797 0.0670031
-0.000600292 0.0342923 0.00660462
0.0279372 -0.00560579 0.0327727
-0.00919984 0.00629315 0.0149891
-0.00470424 -0.0366565 0.0122808
-0.00237806 0.0260248 0.0181422
0.0191194 -0.00542211 0.0123013
-0.00454353 -0.0273766 0.00761949
-0.00388663 0.00416772 -0.0007795
-0.00109204 0.0317062 0.021055
-0.0258305 -0.0172482 0.0459151
0.0251769 -0.0120145 -0.00627742
-0.0195601 -0.0143826 0.0217283
0.00323402 -0.000344339 0.0186512
-0.00758263 0.0190539 0.0857698
0.0209802 0.00379869 -0.0262364
0.00192372 -0.0073 0.0785292
-0.00353423 -0.00355708 0.00236406
-0.000379 0.0062494 0.00346131
0.011371 -0.0585096 0.111737
0.00672359 -0.00121091 0.0894191
-0.00144335 -0.00878171 0.00108277
-0.00371332 0.0134741 0.0895994
-0.0126652 0.011045 -0.0119894
0.0527146 0.0770485 0.0309625
-0.0524647 -0.0259531 0.0323156
-0.0166703 -0.0826626 0.0077695
0.0278226 0.032997 0.0120345
-0.0269689 0.061304 0.0547906
0.0196115 -0.029781 -0.000409428
0.0160582 -0.0974109 0.0767183
-0.030363 0.0317869 0.0219489
0.0971729 0.00927399 -0.0117295
-0.040844 0.0416356 0.0353597
-0.0253538 -0.0369318 0.0258296
-0.0159088 -0.0103113 -0.00913425
-0.0116943 0.0537111 0.0133509
0.068822 0.0242383 0.0250852
-0.0217887 -0.056216 0.000202653
0.00570484 0.0370077 -0.00172402
-0.0634444 0.062495 -0.0158505
0.0539051 -0.0317026 0.0142901
-0.0189433 -0.0555826 0.0100143
-0.0231767 0.029622 -0.00535891
-0.0138153 0.0596436 0.0236118
0.036957 -0.0223485 -0.00151824
0.00711175 -0.068347 0.0367124
-0.00112828 0.0213481 -0.00270296
0.0140778 -0.0492146 0.0594567
-0.028042 -0.00222591 0.0114255
0.0297724 0.0104574 0.0392442
-0.0209607 -0.00232345 0.0149563
-0.00650945 -0.0127046 -0.00435244
-0.00145882 0.00336296 0.0390096
0.0225648 0.0112202 0.0564235
-0.0210314 0.00074264 -0.0378534
0.0183356 0.0108108 0.00585544
0.0138383 -0.00412365 -0.0151271
-0.00350058 -0.00822556 0.00390575
0.00562725 0.0109013 -0.000878378
-0.0103697 0.00831851 -0.00338835
0.00849342 -0.00978702 0.00659646
0.000220566 -0.00814832 -0.010891
-0.0815331 -0.0397421 0.00191187
0.0830906 -0.0372717 0.0510026
0.0312956 0.0934948 0.056901
-0.0399579 0.000321795 0.000188585
-0.0508038 -0.237321 0.0868877
-0.00335806 0.00863578 0.0269641
-0.015559 -0.0423282 0.0608455
0.0385191 -0.000571857 0.00382526
0.000525348 0.0310697 0.0117582