# vtk DataFile Version 2.0
Generated by lpp.py
ASCII
DATASET POLYDATA
POINTS 400 float
0.00132489 0.000443649 3.36586e-05
0.000909457 0.00128611 -1.66342e-05
0.000242972 0.000443135 -3.64628e-05
0.0018324 0.00127784 5.09221e-06
0.00226709 0.000435661 -1.24497e-05
0.00273875 0.00128771 4.63423e-05
0.00324614 0.000515934 4.67087e-05
0.00374293 0.00129184 -1.5404e-05
0.00460443 0.00119563 -2.0603e-05
0.00417272 0.000417343 3.04549e-05
0.00511591 0.000469793 4.04467e-05
0.00566835 0.0013083 -2.65834e-05
0.00664009 0.00128959 -2.02466e-06
0.00602165 0.000418854 -1.20537e-05
0.00693138 0.000445374 3.91278e-05
0.00824262 0.0011762 -1.82355e-06
0.00779487 0.000364388 3.24564e-05
0.00876691 0.000398598 -3.28708e-05
0.009301 0.00138488 3.24568e-05
0.00975729 0.000490916 -2.76781e-05
0.0103852 0.00131161 -4.92787e-05
0.0113769 0.00139196 -4.32784e-06
0.0107649 0.000443792 -3.96086e-06
0.0117796 0.000485519 -1.32742e-05
0.0124051 0.0013297 1.95463e-05
0.0127809 0.000442697 1.3181e-05
0.013433 0.0012261 3.75182e-05
0.0136135 0.000329928 1.89547e-05
0.0143509 0.00161989 1.99029e-05
0.0143642 0.000727287 -4.71808e-05
0.0156457 0.00128558 1.72248e-05
0.0152272 0.000426854 3.7231e-06
0.016548 0.00131583 3.54547e-05
0.0161575 0.0005036 -4.85386e-05
0.0177932 0.00133105 -3.92382e-05
0.0171609 0.000538151 -3.8784e-05
0.018241 0.000486077 3.096e-05
0.019995 0.00131578 4.93031e-05
0.0189173 0.00128032 6.72355e-06
0.0192497 0.000430818 -3.72737e-05
0.00090458 0.00230717 5.14548e-06
0.000378074 0.00315768 -4.9345e-05
0.00206234 0.00294657 -3.17454e-05
0.00232009 0.00211932 -1.41959e-06
0.00292019 0.00285034 3.50109e-05
0.00325297 0.00201947 -3.46654e-05
0.00386078 0.00297753 -3.02218e-05
0.00412546 0.00209069 3.70504e-05
0.00497801 0.00300131 3.07542e-05
0.00497304 0.00196078 -2.23732e-05
0.00564095 0.00243832 -2.11247e-06
0.00623083 0.00307382 -3.67063e-05
0.00641936 0.00213339 3.11799e-05
0.00698526 0.00271044 -2.75116e-05
0.00731331 0.00191163 4.80419e-05
0.00772139 0.00291339 1.77683e-05
0.00828165 0.00219935 -3.97226e-05
0.00875935 0.00311963 4.55657e-05
0.00924242 0.00230687 1.80717e-05
0.00979828 0.00312836 -3.93388e-05
0.0101312 0.00222324 2.40231e-05
0.0107325 0.00309815 2.716e-05
0.0110915 0.00228161 -4.78087e-05
0.0116532 0.00309643 -4.25165e-05
0.0120548 0.00222692 -4.01526e-05
0.0126202 0.00312513 2.94528e-05
0.0131029 0.0022296 4.21294e-05
0.0136477 0.00314417 2.4953e-06
0.0141621 0.0024205 2.35941e-05
0.0146245 0.00314218 -2.89305e-05
0.0150768 0.00224452 3.21045e-05
0.01561 0.00308932 2.08022e-05
0.0160007 0.00209294 1.69816e-05
0.0164979 0.00284488 -1.31875e-05
0.0169221 0.00207875 -2.13541e-05
0.0173521 0.00302227 -2.48084e-05
0.0178583 0.00224461 7.17441e-06
0.0184375 0.00302932 -3.11061e-05
0.018856 0.00220908 -6.697e-06
0.0194277 0.00303875 1.88296e-05
0.0198464 0.00217677 2.40593e-05
0.00131247 0.00346555 4.11056e-07
0.00153507 0.0043798 -3.43082e-05
0.000512203 0.00405385 4.11872e-05
0.000785034 0.00499877 1.15215e-05
0.00224753 0.00383291 4.14547e-05
0.00261943 0.00468366 2.79416e-05
0.00313126 0.003688 -1.57031e-06
0.0035914 0.00469956 5.32063e-06
0.00401288 0.00391644 -2.6529e-06
0.00457719 0.00494673 -3.58607e-05
0.00498885 0.00397185 -2.13321e-05
0.00565358 0.00479157 -4.97251e-05
0.00596491 0.00390432 -2.41619e-05
0.00666787 0.00459887 -2.57589e-05
0.00701413 0.00365666 -4.22335e-05
0.00773738 0.00462636 4.30556e-05
0.00795214 0.00368308 4.42331e-05
0.00876875 0.00406118 -4.39636e-05
0.00979125 0.00487291 4.93343e-05
0.00960131 0.00400202 4.05756e-05
0.00869909 0.00490842 -1.72291e-05
0.010416 0.00387945 -3.72271e-05
0.0107597 0.00467057 4.50596e-05
0.0112748 0.00394363 1.35023e-05
0.0119268 0.00475493 3.81834e-05
0.0121343 0.0038935 3.14585e-06
0.0128959 0.00492857 -2.4127e-05
0.0131232 0.00399494 1.0814e-05
0.0137563 0.00483784 -4.51984e-05
0.0141793 0.004028 1.00341e-06
0.014701 0.00489092 6.87793e-06
0.0151479 0.0039589 1.87838e-05
0.0160731 0.00415547 4.33922e-05
0.0167705 0.00468934 2.18197e-05
0.0170223 0.00386785 -2.12721e-05
0.0176537 0.0046085 6.56493e-06
0.0179552 0.00377731 9.36883e-06
0.0186886 0.00453831 3.03201e-05
0.0194013 0.00392503 1.43967e-05
0.0197438 0.00478858 -2.66714e-05
0.00118731 0.00594978 1.46596e-05
0.000313315 0.0065029 -3.99128e-05
7.70743e-05 0.00571529 -3.26099e-05
0.00180503 0.00521785 -7.07934e-06
0.00212209 0.006459 -2.06108e-05
0.00262127 0.00563286 3.54227e-05
0.00311814 0.00641093 -2.96496e-05
0.00357464 0.00562839 1.90715e-05
0.00443425 0.00591214 1.72497e-05
0.00534815 0.00576119 2.50127e-05
0.00594124 0.00650224 -4.27825e-05
0.00628418 0.0055343 2.43943e-05
0.00678493 0.00637449 -3.07296e-05
0.00719482 0.00549528 -2.4969e-05
0.00769274 0.00633584 1.47771e-05
0.0081677 0.00556035 -2.62417e-05
0.00862811 0.00633207 -3.20614e-05
0.00924709 0.00566073 -4.70071e-05
0.0101054 0.00575128 4.476e-05
0.0109193 0.00555332 -5.06646e-06
0.0113747 0.00651072 -4.22073e-05
0.0117473 0.00566513 2.60985e-05
0.0123252 0.0064037 1.83575e-05
0.0125108 0.00559724 -2.28987e-05
0.0132065 0.00609292 2.90979e-05
0.0141471 0.00577134 4.28851e-05
0.01517 0.00589335 -1.46308e-05
0.0156713 0.00502208 -7.56683e-06
0.0160473 0.00623945 -4.83823e-05
0.0165085 0.00551963 2.89194e-05
0.0169786 0.00632262 3.21564e-05
0.0173111 0.00537645 -4.85919e-05
0.0180669 0.00628219 -1.12464e-05
0.0181356 0.00535554 3.12852e-05
0.019282 0.00635968 2.46256e-05
0.0190509 0.00549034 -4.44854e-05
0.00125826 0.00681373 -2.73404e-05
0.00113443 0.00795901 -3.38667e-05
0.000593444 0.00725982 -4.2113e-05
0.000102578 0.00807616 1.49646e-05
0.0018966 0.00742515 7.74856e-06
0.00204834 0.00829842 5.5329e-07
0.00282803 0.00725606 3.67542e-05
0.00292139 0.00819991 1.2865e-05
0.00374024 0.00772294 -4.70278e-05
0.00399273 0.00673784 -1.13161e-05
0.00471505 0.00768232 1.72877e-05
0.00504843 0.00677371 -4.33679e-05
0.00568152 0.00765956 7.98975e-06
0.00645852 0.00722427 -4.89198e-05
0.00703398 0.00808627 -1.8846e-05
0.00735526 0.00719555 -2.80691e-05
0.00791618 0.00787623 -4.34141e-05
0.00823565 0.00712357 2.59556e-05
0.00883636 0.00784825 -3.81694e-05
0.00940894 0.00692461 -2.37608e-06
0.00982536 0.00782897 -1.57412e-05
0.0104001 0.00668063 -1.47472e-05
0.0107343 0.00823374 4.979e-05
0.011028 0.00736057 2.22644e-05
0.0117139 0.00820842 -4.55597e-05
0.0120313 0.00729926 -4.5975e-05
0.0128484 0.00785143 4.23607e-05
0.0130135 0.00699206 4.20701e-05
0.013842 0.00781562 -5.04024e-06
0.0138972 0.00679862 1.64328e-05
0.0148451 0.00792202 -1.6913e-05
0.0149008 0.00691142 -4.21217e-05
0.0158133 0.00811092 -3.94419e-05
0.0159081 0.00713294 -1.21974e-05
0.0166756 0.0077014 -3.70828e-05
0.0174805 0.00715032 -3.33274e-05
0.0181469 0.0080561 -3.83096e-05
0.0184967 0.00717509 -2.02095e-05
0.0191683 0.00778195 -4.84051e-05
0.0197482 0.00712981 -3.46879e-05
0.00159109 0.00915003 2.66777e-05
0.000794631 0.00875832 -3.96098e-06
0.000724353 0.00962901 -1.72888e-05
0.00231054 0.00997619 2.41907e-05
0.00257377 0.00906478 4.87165e-05
0.00322174 0.0097272 7.50784e-06
0.00347053 0.00889117 -7.08428e-06
0.00418377 0.00954441 6.12283e-06
0.00435061 0.00858021 1.74262e-06
0.00515953 0.00943806 -2.81666e-05
0.00534648 0.00853127 -1.04316e-05
0.00610663 0.00937756 9.49774e-06
0.00622647 0.008489 -4.45245e-05
0.00693774 0.00902738 3.54547e-06
0.00739883 0.00987134 -2.7703e-05
0.00778212 0.00871531 -4.92713e-05
0.00819578 0.00951318 1.26179e-05
0.00870119 0.00879084 4.93873e-05
0.00909502 0.00970411 -4.18982e-05
0.00971212 0.00886119 -9.33208e-06
0.010665 0.00928863 -3.72943e-05
0.0113697 0.00989232 1.32074e-05
0.0116079 0.00907853 3.24679e-05
0.0122937 0.00975934 -1.82378e-05
0.0125463 0.0087601 4.17083e-05
0.0132106 0.00962427 2.0062e-05
0.0135477 0.00880388 -3.30909e-05
0.0140328 0.00959879 -4.57402e-05
0.0145371 0.00882752 -3.07794e-05
0.0149092 0.00967021 4.85236e-05
0.0154862 0.00898092 -3.2558e-05
0.0158029 0.00993994 -4.73944e-05
0.0164583 0.00883787 -2.5672e-05
0.0166954 0.00969315 -3.5681e-05
0.0173139 0.008351 2.81917e-06
0.0174186 0.00923204 -4.5525e-06
0.0183134 0.00993142 1.70983e-05
0.0199492 0.0090849 -3.41589e-05
0.0183358 0.00898668 -3.29151e-05
0.0191419 0.00955474 4.46827e-05
0.019142 0.00861118 -3.50995e-05
0.00160269 0.0115947 -2.75196e-05
0.00141808 0.0100975 -3.628e-05
0.000999979 0.0108598 -3.81409e-05
9.26764e-05 0.0110252 4.26166e-05
0.00191026 0.0107562 2.8646e-05
0.0025485 0.0113923 1.79805e-07
0.00296678 0.0105896 -3.0738e-05
0.00352325 0.0113161 1.32908e-05
0.00386287 0.010445 3.19371e-06
0.00448676 0.0112761 -4.05009e-05
0.00488188 0.0103857 2.58338e-05
0.00542706 0.0112345 5.57899e-06
0.00579942 0.0102256 3.55182e-05
0.00633076 0.0110331 -2.60959e-05
0.00661427 0.0101988 1.90003e-05
0.00726188 0.0108305 2.40728e-05
0.00804397 0.0115382 -1.09524e-05
0.00822063 0.0105096 -2.41459e-05
0.00920351 0.0106624 1.14157e-05
0.00899326 0.011559 -2.28614e-05
0.00996689 0.0100986 7.96265e-06
0.0100513 0.0110611 4.36203e-05
0.0107695 0.0104733 4.40746e-05
0.010971 0.0113627 4.26806e-05
0.0117152 0.0107227 1.59016e-05
0.0126462 0.0106145 -4.05226e-06
0.0131213 0.0112617 -3.49974e-05
0.0135724 0.0104315 -2.12959e-05
0.013935 0.0112395 -3.47829e-05
0.0144883 0.0103609 -6.10015e-06
0.0148464 0.0112146 -4.9699e-05
0.01581 0.0110012 -3.49785e-05
0.0165842 0.0105625 -3.04875e-05
0.0166246 0.0115683 2.14731e-05
0.0173179 0.0110703 4.23831e-06
0.0174542 0.0102047 1.54215e-05
0.0182935 0.0109066 -4.02054e-05
0.0190784 0.01043 -1.5365e-05
0.0192127 0.01131 -1.60515e-05
0.0199345 0.0101229 -4.17269e-05
0.00138757 0.012654 1.39627e-05
0.000683428 0.0118009 -9.96495e-06
0.0004476 0.0127302 2.195e-05
0.0022614 0.0123214 1.50647e-05
0.00294121 0.0130598 -2.83946e-05
0.00318642 0.0121452 2.84116e-05
0.00403933 0.0129443 -8.8818e-06
0.00406564 0.012034 -1.71454e-05
0.00494072 0.0130896 4.3363e-05
0.00503869 0.012154 3.19528e-05
0.00578996 0.0129026 -3.24457e-07
0.00606092 0.0119618 1.74786e-05
0.00665113 0.012648 -2.9504e-05
0.00707437 0.0117961 2.61725e-05
0.007564 0.0127002 -7.28073e-06
0.00854799 0.0124188 2.21972e-05
0.00928855 0.0130095 3.4178e-05
0.00981621 0.0119904 -3.43726e-05
0.0101299 0.0129255 2.4284e-05
0.0107532 0.0122962 4.99362e-05
0.0111482 0.0131372 1.79808e-05
0.0119071 0.0117299 3.01021e-05
0.0120651 0.0128002 -4.81269e-05
0.0128161 0.0119906 3.49515e-06
0.0131175 0.0128308 8.09002e-06
0.0137654 0.0121016 -1.27408e-05
0.0142557 0.0129711 1.51186e-05
0.014724 0.0121958 -2.52694e-05
0.0154641 0.0127977 -2.24734e-05
0.0155857 0.01189 -4.84058e-07
0.0163208 0.0124316 2.73575e-05
0.0171354 0.0123298 2.6071e-05
0.0172291 0.0131972 -3.7354e-05
0.0178867 0.0118428 -4.54593e-05
0.0179598 0.0127929 -4.8395e-05
0.0187006 0.0130943 7.82155e-06
0.0188498 0.0121958 -1.47463e-05
0.0195414 0.0129237 -3.72359e-05
0.0197874 0.0120501 -4.13942e-05
0.00110191 0.0135729 -4.1589e-05
0.000948043 0.0145446 -1.31753e-05
0.000169264 0.0136118 -1.17246e-06
0.00189731 0.0145657 -5.27218e-06
0.00200729 0.0133428 2.70269e-05
0.00266448 0.0140033 -4.69919e-05
0.00306933 0.0148445 2.49655e-05
0.00360311 0.0138006 2.96183e-05
0.0039779 0.014615 1.43924e-05
0.00459289 0.0139054 -3.62044e-05
0.00520721 0.014541 2.52958e-05
0.00553425 0.013774 -4.96651e-05
0.00606368 0.0145269 -1.66336e-06
0.00644435 0.0136479 -6.05535e-06
0.00698574 0.0145734 -2.79437e-05
0.00742785 0.013702 1.57621e-06
0.00804475 0.0145645 -3.93501e-06
0.0083787 0.0134465 4.44824e-05
0.00911346 0.0140477 4.05064e-05
0.00975803 0.0147244 -8.94147e-06
0.00894878 0.0149824 -1.15952e-07
0.0100774 0.0138489 -3.1985e-05
0.0105986 0.0146522 2.67646e-06
0.0110122 0.013955 8.79731e-06
0.0114829 0.0146899 -1.90989e-05
0.0118043 0.0137566 1.18363e-05
0.0123205 0.0144651 -1.70971e-05
0.0126867 0.0136421 2.04004e-05
0.0132454 0.0143814 -4.99115e-05
0.0136383 0.013585 4.34762e-05
0.0141826 0.0146393 2.36495e-05
0.0144832 0.0138163 1.50053e-05
0.0151292 0.0145935 -1.68329e-05
0.015365 0.0136948 2.59986e-05
0.0161382 0.0144172 -4.8797e-05
0.0162752 0.0133868 -2.94781e-05
0.0171485 0.0141678 -3.80464e-05
0.0180029 0.0146261 6.36771e-07
0.0180635 0.0136988 -4.54767e-05
0.019946 0.0145336 -2.39016e-05
0.0189379 0.0145417 -3.38088e-05
0.0192664 0.0137378 6.46138e-06
0.00143514 0.015398 3.1619e-05
0.00102874 0.0162515 -3.75421e-05
0.000512907 0.015394 1.65265e-05
0.000140426 0.0162431 3.22872e-05
0.00198345 0.0162624 -2.29225e-05
0.0023617 0.0154158 -4.48401e-05
0.00301045 0.0161905 -1.88293e-05
0.00374393 0.015521 5.22691e-06
0.00399147 0.0163417 -2.84806e-06
0.00464442 0.015245 3.75063e-05
0.00491378 0.0161971 -2.57249e-06
0.00557814 0.0153354 -3.31627e-05
0.00593484 0.016218 4.29286e-05
0.00655862 0.0154128 3.83299e-05
0.00692302 0.0162876 8.05502e-06
0.00748073 0.015371 -1.60873e-07
0.00780183 0.0162824 4.44584e-05
0.0083933 0.0156746 1.77529e-05
0.00919862 0.0160938 1.78253e-05
0.0099383 0.0155472 1.34032e-05
0.0100244 0.0163668 -1.78006e-05
0.0107785 0.0163487 3.69213e-05
0.0109429 0.0154953 -2.36735e-05
0.0116343 0.0162675 -3.81553e-05
0.0120247 0.0154054 -3.46021e-05
0.0126324 0.0162175 4.68532e-05
0.0130523 0.0153166 -4.47667e-06
0.0136248 0.0163155 -3.82493e-05
0.0140078 0.0155212 4.44816e-05
0.0145409 0.0162969 2.60965e-05
0.0149238 0.0154789 -1.42244e-05
0.0154593 0.0162596 -2.63927e-05
0.0158596 0.0153997 1.45032e-05
0.0163387 0.0162682 1.42827e-05
0.0168811 0.0152248 8.61202e-06
0.0172595 0.0162313 1.04172e-05
0.017793 0.0154403 -1.6534e-05
0.0182636 0.016246 1.14277e-05
0.0186643 0.0153945 3.47044e-05
0.0192382 0.0162476 4.63278e-05
0.0195931 0.0154169 -1.23126e-05
VERTICES 400 800
1 0
1 1
1 2
1 3
1 4
1 5
1 6
1 7
1 8
1 9
1 10
1 11
1 12
1 13
1 14
1 15
1 16
1 17
1 18
1 19
1 20
1 21
1 22
1 23
1 24
1 25
1 26
1 27
1 28
1 29
1 30
1 31
1 32
1 33
1 34
1 35
1 36
1 37
1 38
1 39
1 40
1 41
1 42
1 43
1 44
1 45
1 46
1 47
1 48
1 49
1 50
1 51
1 52
1 53
1 54
1 55
1 56
1 57
1 58
1 59
1 60
1 61
1 62
1 63
1 64
1 65
1 66
1 67
1 68
1 69
1 70
1 71
1 72
1 73
1 74
1 75
1 76
1 77
1 78
1 79
1 80
1 81
1 82
1 83
1 84
1 85
1 86
1 87
1 88
1 89
1 90
1 91
1 92
1 93
1 94
1 95
1 96
1 97
1 98
1 99
1 100
1 101
1 102
1 103
1 104
1 105
1 106
1 107
1 108
1 109
1 110
1 111
1 112
1 113
1 114
1 115
1 116
1 117
1 118
1 119
1 120
1 121
1 122
1 123
1 124
1 125
1 126
1 127
1 128
1 129
1 130
1 131
1 132
1 133
1 134
1 135
1 136
1 137
1 138
1 139
1 140
1 141
1 142
1 143
1 144
1 145
1 146
1 147
1 148
1 149
1 150
1 151
1 152
1 153
1 154
1 155
1 156
1 157
1 158
1 159
1 160
1 161
1 162
1 163
1 164
1 165
1 166
1 167
1 168
1 169
1 170
1 171
1 172
1 173
1 174
1 175
1 176
1 177
1 178
1 179
1 180
1 181
1 182
1 183
1 184
1 185
1 186
1 187
1 188
1 189
1 190
1 191
1 192
1 193
1 194
1 195
1 196
1 197
1 198
1 199
1 200
1 201
1 202
1 203
1 204
1 205
1 206
1 207
1 208
1 209
1 210
1 211
1 212
1 213
1 214
1 215
1 216
1 217
1 218
1 219
1 220
1 221
1 222
1 223
1 224
1 225
1 226
1 227
1 228
1 229
1 230
1 231
1 232
1 233
1 234
1 235
1 236
1 237
1 238
1 239
1 240
1 241
1 242
1 243
1 244
1 245
1 246
1 247
1 248
1 249
1 250
1 251
1 252
1 253
1 254
1 255
1 256
1 257
1 258
1 259
1 260
1 261
1 262
1 263
1 264
1 265
1 266
1 267
1 268
1 269
1 270
1 271
1 272
1 273
1 274
1 275
1 276
1 277
1 278
1 279
1 280
1 281
1 282
1 283
1 284
1 285
1 286
1 287
1 288
1 289
1 290
1 291
1 292
1 293
1 294
1 295
1 296
1 297
1 298
1 299
1 300
1 301
1 302
1 303
1 304
1 305
1 306
1 307
1 308
1 309
1 310
1 311
1 312
1 313
1 314
1 315
1 316
1 317
1 318
1 319
1 320
1 321
1 322
1 323
1 324
1 325
1 326
1 327
1 328
1 329
1 330
1 331
1 332
1 333
1 334
1 335
1 336
1 337
1 338
1 339
1 340
1 341
1 342
1 343
1 344
1 345
1 346
1 347
1 348
1 349
1 350
1 351
1 352
1 353
1 354
1 355
1 356
1 357
1 358
1 359
1 360
1 361
1 362
1 363
1 364
1 365
1 366
1 367
1 368
1 369
1 370
1 371
1 372
1 373
1 374
1 375
1 376
1 377
1 378
1 379
1 380
1 381
1 382
1 383
1 384
1 385
1 386
1 387
1 388
1 389
1 390
1 391
1 392
1 393
1 394
1 395
1 396
1 397
1 398
1 399
POINT_DATA 400
VECTORS f float
1.6934e-08 4.68461e-09 0.0
4.50509e-09 -2.49014e-08 0.0
-5.66102e-08 1.77625e-08 0.0
7.15768e-09 1.43157e-08 0.0
3.76495e-09 1.58618e-09 0.0
8.04164e-09 2.6907e-09 0.0
-1.22369e-09 -3.74638e-09 0.0
-1.33134e-08 1.56652e-09 0.0
-3.44363e-09 -9.82615e-09 0.0
-7.15226e-09 -6.38541e-09 0.0
-8.12562e-09 -1.10516e-08 0.0
-7.87791e-09 -2.60265e-08 0.0
-7.90041e-09 -2.21532e-08 0.0
-5.1499e-09 -8.01239e-09 0.0
-3.82594e-09 -1.0674e-08 0.0
-4.28214e-08 9.47186e-09 0.0
-2.8706e-09 -3.2955e-09 0.0
2.40111e-09 9.10996e-09 0.0
-4.35658e-08 -5.98541e-08 0.0
2.30629e-08 -1.85091e-08 0.0
1.95847e-08 -2.89428e-08 0.0
2.97972e-08 4.78466e-09 0.0
1.91762e-08 -2.02407e-09 0.0
5.27793e-08 2.03938e-08 0.0
8.72857e-08 2.97268e-08 0.0
4.12943e-08 9.91703e-09 0.0
1.29519e-07 -1.55088e-09 0.0
3.33039e-08 -2.17984e-09 0.0
8.79951e-08 5.68501e-09 0.0
1.13195e-07 1.15398e-08 0.0
1.7309e-08 1.76183e-08 0.0
8.68462e-08 -6.58104e-09 0.0
6.39462e-09 3.56358e-08 0.0
7.33971e-08 1.52472e-08 0.0
6.86827e-08 5.95232e-09 0.0
6.77889e-08 5.75502e-08 0.0
3.57677e-08 -3.27692e-09 0.0
9.56496e-09 3.3625e-08 0.0
3.50413e-08 -4.32248e-09 0.0
1.46343e-09 -1.61126e-08 0.0
2.07437e-08 -1.38394e-08 0.0
3.12157e-08 5.70864e-09 0.0
8.02685e-09 -5.82734e-09 0.0
1.32478e-08 1.85932e-09 0.0
7.85395e-09 -7.89338e-09 0.0
5.94865e-09 1.33369e-08 0.0
6.38018e-09 -1.08955e-09 0.0
3.53861e-09 -1.43199e-09 0.0
-1.83844e-08 -5.16165e-08 0.0
-6.23208e-09 -2.76884e-08 0.0
-8.77189e-09 -2.4369e-08 0.0
1.0496e-09 -5.26912e-08 0.0
-8.33993e-09 -2.82944e-08 0.0
-1.19123e-08 -1.16543e-08 0.0
-1.39944e-08 -9.02909e-09 0.0
-6.71933e-09 1.54939e-08 0.0
-5.99081e-08 2.66363e-08 0.0
4.65635e-08 2.53907e-08 0.0
-3.12619e-08 -2.18039e-08 0.0
-1.62593e-08 3.56618e-08 0.0
-2.94255e-08 -2.70135e-08 0.0
-1.03088e-08 5.80529e-09 0.0
-2.98007e-08 -1.96824e-08 0.0
-4.85824e-08 -1.45213e-08 0.0
1.45767e-08 2.36296e-08 0.0
-4.13212e-08 -4.09632e-08 0.0
4.75697e-08 -4.5419e-08 0.0
1.59812e-09 -4.09594e-08 0.0
3.65996e-08 -7.81222e-09 0.0
2.74266e-08 1.21537e-08 0.0
4.43823e-08 7.2192e-08 0.0
3.70417e-08 6.73206e-08 0.0
5.12379e-09 4.48567e-08 0.0
4.51623e-08 4.66499e-08 0.0
3.17296e-08 2.99194e-08 0.0
5.17305e-08 1.72235e-08 0.0
6.79573e-08 1.1441e-09 0.0
4.58641e-08 2.10823e-08 0.0
5.91093e-08 9.9079e-09 0.0
4.77542e-08 7.80729e-09 0.0
9.1781e-08 5.1689e-08 0.0
2.17344e-08 -1.63003e-08 0.0
6.09742e-09 -1.70877e-08 0.0
1.55782e-08 -1.59539e-08 0.0
-1.16882e-08 -6.04002e-08 0.0
7.66311e-09 -2.2007e-08 0.0
2.89831e-09 -2.74855e-08 0.0
-2.41138e-09 -7.60428e-09 0.0
-9.52769e-09 -2.30176e-08 0.0
-1.75104e-08 -1.16514e-08 0.0
-1.80769e-08 -5.06403e-08 0.0
-3.42386e-08 -6.7077e-08 0.0
-3.44268e-08 -5.89788e-08 0.0
-2.36363e-09 -3.89444e-08 0.0
-2.00741e-09 -7.29674e-08 0.0
4.26331e-08 -3.75089e-08 0.0
5.24267e-08 -1.2762e-08 0.0
5.89252e-08 6.69343e-09 0.0
5.67449e-08 4.71789e-08 0.0
1.68101e-07 1.17823e-07 0.0
6.74623e-08 7.14937e-08 0.0
1.45163e-08 1.81167e-08 0.0
3.05303e-08 3.76923e-08 0.0
-2.55269e-08 1.00735e-07 0.0
7.81423e-09 3.79716e-08 0.0
5.00035e-08 1.68493e-08 0.0
-4.51925e-09 -3.5344e-09 0.0
4.56871e-08 -2.06818e-08 0.0
-6.84585e-09 -5.78926e-08 0.0
1.85276e-08 -4.17719e-08 0.0
-8.4461e-09 -4.46475e-08 0.0
-1.93894e-08 -1.63488e-08 0.0
-9.45414e-09 4.87095e-08 0.0
-2.13461e-08 6.35001e-08 0.0
-3.14011e-09 2.22316e-08 0.0
-6.52852e-08 -1.25875e-08 0.0
-3.26847e-08 -9.64427e-10 0.0
-2.12627e-08 -4.01173e-09 0.0
-6.57295e-08 -8.14544e-09 0.0
-2.3214e-08 -1.25751e-08 0.0
-3.2618e-08 -5.32776e-08 0.0
-2.48597e-08 -3.0382e-08 0.0
2.14017e-08 -1.67476e-08 0.0
1.48172e-08 -3.66582e-08 0.0
-8.95847e-09 -2.47495e-08 0.0
-1.48697e-08 -4.41502e-08 0.0
-9.28767e-09 -2.87192e-08 0.0
-6.81424e-09 -2.08215e-08 0.0
-2.15616e-08 -4.85143e-08 0.0
-2.2498e-08 -2.66967e-08 0.0
-5.08453e-08 2.1828e-09 0.0
-2.4503e-08 1.17459e-08 0.0
-2.1595e-08 -3.25307e-08 0.0
-5.17044e-08 -3.39661e-09 0.0
-4.14324e-08 -4.73164e-08 0.0
-7.99176e-08 -1.58118e-08 0.0
-2.85541e-08 -9.00416e-11 0.0
-8.62782e-08 -1.96097e-08 0.0
3.57048e-08 5.28582e-08 0.0
7.15143e-08 1.51752e-07 0.0
4.23007e-08 1.04632e-07 0.0
9.88604e-08 1.15529e-07 0.0
6.44096e-08 2.95177e-08 0.0
1.39017e-07 -3.97922e-09 0.0
4.89254e-08 -2.66161e-09 0.0
1.11843e-07 -2.82801e-08 0.0
1.09065e-07 5.77758e-09 0.0
3.95279e-08 2.18063e-08 0.0
-1.09111e-09 3.78859e-08 0.0
1.78663e-08 2.19139e-08 0.0
7.70858e-09 3.03109e-08 0.0
-3.22877e-09 -1.79613e-08 0.0
3.43891e-09 8.6221e-09 0.0
-2.48456e-08 -1.98465e-08 0.0
4.66071e-09 -1.47865e-09 0.0
5.28807e-08 -4.87972e-08 0.0
2.34268e-08 -3.40981e-08 0.0
-5.58307e-09 -1.61593e-08 0.0
1.49424e-08 -2.1986e-08 0.0
7.20542e-09 -1.03766e-08 0.0
1.47003e-08 -2.72084e-08 0.0
3.39482e-09 -2.74421e-08 0.0
1.36578e-08 -1.54662e-08 0.0
-1.57876e-09 -4.19996e-08 0.0
1.66412e-08 -2.16896e-08 0.0
1.95135e-08 -5.07569e-09 0.0
-7.32203e-09 -4.33265e-08 0.0
2.20779e-08 7.26542e-08 0.0
-1.65164e-08 1.04861e-07 0.0
3.06431e-08 9.30123e-08 0.0
-2.3036e-08 3.11074e-08 0.0
-2.77819e-08 8.84767e-08 0.0
-3.70263e-08 2.26837e-08 0.0
-2.11486e-08 2.00751e-08 0.0
-5.10845e-08 -3.96411e-09 0.0
-6.53984e-08 1.63857e-08 0.0
-1.5955e-07 -6.02296e-09 0.0
-8.92468e-08 -9.23729e-08 0.0
2.51945e-08 1.86453e-07 0.0
1.19932e-08 -1.49277e-07 0.0
-1.07763e-07 5.68148e-08 0.0
4.5889e-08 -1.19864e-07 0.0
2.16135e-07 -3.72006e-08 0.0
5.99077e-08 -6.57402e-09 0.0
8.09034e-08 -1.45508e-08 0.0
5.02484e-08 6.7208e-09 0.0
6.92217e-08 1.3771e-08 0.0
-3.93981e-09 4.84469e-09 0.0
4.74953e-08 6.54762e-09 0.0
-6.04072e-08 1.47903e-09 0.0
-2.5511e-08 9.05018e-09 0.0
-5.68345e-08 -4.37706e-08 0.0
-7.95418e-08 -7.38201e-08 0.0
-6.35565e-09 -2.68486e-08 0.0
-4.4496e-08 -2.25469e-08 0.0
2.05512e-09 -2.52952e-08 0.0
1.59964e-08 -3.51466e-08 0.0
4.23577e-08 -1.18674e-08 0.0
1.55475e-08 -5.53852e-09 0.0
3.95338e-08 -3.21901e-09 0.0
5.74156e-08 -7.16174e-09 0.0
3.39625e-08 -1.7241e-08 0.0
2.97845e-08 -7.36022e-09 0.0
1.82322e-08 3.56548e-09 0.0
4.02888e-08 3.87386e-08 0.0
1.95512e-08 5.91008e-08 0.0
2.54799e-08 5.74708e-08 0.0
3.33121e-08 1.10553e-07 0.0
6.06808e-08 1.21913e-07 0.0
2.04814e-08 7.69968e-08 0.0
5.29359e-08 1.05991e-07 0.0
1.13317e-07 1.35677e-07 0.0
4.98015e-10 4.93712e-08 0.0
6.66078e-08 6.34602e-08 0.0
-1.43822e-08 3.4105e-09 0.0
8.80143e-08 -5.30501e-08 0.0
3.89696e-08 -1.11892e-07 0.0
2.13961e-08 -1.17601e-07 0.0
1.20215e-08 -4.99552e-08 0.0
-5.84483e-09 -7.21633e-08 0.0
9.40292e-09 -7.34059e-08 0.0
-1.21037e-09 -4.8597e-08 0.0
3.55845e-09 1.50468e-08 0.0
-3.65e-09 1.70291e-08 0.0
-6.37302e-09 1.6789e-08 0.0
-4.54796e-08 2.70279e-09 0.0
-3.35447e-08 6.19997e-09 0.0
-6.21936e-08 -4.05087e-09 0.0
-4.58545e-08 -2.74222e-08 0.0
-6.46317e-08 -3.2949e-08 0.0
-1.69147e-08 -2.9905e-08 0.0
-9.49666e-09 -4.96702e-08 0.0
-1.75014e-08 -5.11028e-08 0.0
1.41677e-08 -1.41908e-08 0.0
3.73481e-08 -1.20665e-08 0.0
9.09151e-09 -3.13156e-08 0.0
2.43312e-08 -7.58687e-09 0.0
1.47514e-08 -1.33494e-08 0.0
9.24106e-08 9.78587e-09 0.0
4.28506e-08 2.08362e-09 0.0
6.8481e-08 1.18818e-08 0.0
6.636e-08 1.00007e-08 0.0
4.74699e-08 -2.42711e-10 0.0
9.07119e-08 -5.09854e-09 0.0
4.54262e-08 -4.15154e-09 0.0
5.05945e-08 -8.3195e-10 0.0
6.84711e-08 1.31417e-08 0.0
3.91853e-08 1.99011e-08 0.0
7.03683e-08 7.47785e-08 0.0
2.48989e-08 2.50921e-08 0.0
3.70052e-08 6.28894e-08 0.0
3.35778e-08 3.98763e-08 0.0
4.63753e-08 4.00448e-08 0.0
4.03838e-08 9.50336e-08 0.0
-1.0857e-08 -1.39102e-08 0.0
1.09892e-07 7.65942e-08 0.0
8.3916e-08 -4.99628e-08 0.0
2.8263e-08 -2.924e-08 0.0
7.4467e-08 -4.48853e-08 0.0
6.0301e-08 -3.53136e-08 0.0
3.69303e-08 -3.24099e-08 0.0
6.35648e-08 -3.28199e-08 0.0
2.90632e-08 -4.89446e-08 0.0
-4.49308e-09 -1.46031e-08 0.0
-1.66666e-08 1.5627e-08 0.0
-1.54043e-08 3.67378e-08 0.0
-5.85587e-09 1.44619e-08 0.0
-1.22142e-08 1.87868e-08 0.0
1.54747e-08 2.47016e-08 0.0
9.08655e-09 3.52897e-09 0.0
-7.76583e-09 -3.00265e-08 0.0
4.61949e-08 2.06793e-08 0.0
1.66453e-08 -1.31316e-08 0.0
-8.30797e-09 -4.14402e-08 0.0
5.70686e-08 1.36514e-08 0.0
3.03319e-08 -2.52994e-09 0.0
6.51268e-08 6.6342e-09 0.0
4.49215e-08 -2.09899e-09 0.0
5.68569e-08 2.3182e-09 0.0
9.93655e-08 2.1429e-08 0.0
5.3026e-08 1.1618e-08 0.0
8.51669e-08 -5.64558e-09 0.0
7.08156e-08 -1.32589e-08 0.0
6.92802e-08 -4.1555e-09 0.0
2.98973e-08 -5.93817e-09 0.0
4.13943e-08 2.29856e-09 0.0
8.81819e-09 3.58879e-09 0.0
4.17831e-08 2.14958e-08 0.0
2.46397e-09 1.05794e-08 0.0
1.14539e-08 2.54815e-08 0.0
-1.51116e-10 4.8064e-09 0.0
-7.27793e-09 3.61396e-08 0.0
-1.67939e-08 -1.66768e-08 0.0
1.63331e-08 -3.47962e-08 0.0
2.28063e-08 -6.20998e-08 0.0
4.77946e-08 -9.06062e-09 0.0
3.7098e-09 -1.38772e-08 0.0
8.47253e-08 -4.71441e-09 0.0
5.25408e-09 2.59561e-09 0.0
3.93813e-08 -1.24035e-08 0.0
-2.82465e-09 3.15352e-08 0.0
4.33503e-09 2.61285e-08 0.0
9.59336e-09 3.67257e-08 0.0
1.71346e-08 3.49018e-08 0.0
1.50419e-08 2.84404e-08 0.0
2.95789e-08 2.95956e-08 0.0
2.52728e-08 2.30895e-08 0.0
3.46382e-08 2.04034e-08 0.0
4.36761e-08 3.56505e-08 0.0
3.02779e-08 1.91069e-08 0.0
2.56045e-08 4.69687e-08 0.0
8.35878e-08 2.36642e-08 0.0
2.85327e-08 3.03353e-08 0.0
2.66276e-08 1.24713e-08 0.0
7.09634e-08 1.58436e-08 0.0
4.48643e-08 4.71386e-09 0.0
5.88769e-08 8.83441e-09 0.0
2.20219e-08 -4.57374e-09 0.0
-3.79897e-08 -2.35956e-08 0.0
1.16742e-08 -1.28006e-09 0.0
-3.69651e-08 -4.53535e-08 0.0
2.93825e-08 -1.5195e-08 0.0
1.23847e-09 -3.01043e-08 0.0
-2.44197e-08 -2.41331e-08 0.0
1.45784e-08 -4.84592e-09 0.0
-5.35887e-09 -9.67953e-09 0.0
5.0582e-09 -5.33111e-09 0.0
-6.04818e-10 -1.8372e-09 0.0
-4.64065e-09 -6.14766e-10 0.0
7.895e-09 -7.83292e-09 0.0
-2.31989e-08 1.13382e-11 0.0
2.57254e-08 -3.59912e-08 0.0
-5.86398e-08 -8.53937e-08 0.0
-9.80103e-08 -1.26929e-07 0.0
-6.74945e-08 -4.13361e-08 0.0
-1.04094e-07 5.47206e-08 0.0
-5.63072e-08 2.45758e-08 0.0
-9.83941e-08 1.75627e-08 0.0
-1.5112e-07 2.05297e-08 0.0
-5.19826e-08 9.98136e-09 0.0
-4.20312e-08 6.15083e-09 0.0
-6.07675e-08 6.3936e-09 0.0
-2.35293e-08 2.4129e-08 0.0
-2.09951e-08 3.4989e-08 0.0
-1.36671e-08 2.82967e-08 0.0
-1.79341e-08 3.55595e-08 0.0
4.11519e-10 2.31153e-08 0.0
-8.76178e-09 2.74657e-08 0.0
5.14433e-09 2.67652e-08 0.0
-1.15315e-08 3.98961e-08 0.0
1.53074e-08 3.84369e-08 0.0
-1.88772e-08 6.7736e-08 0.0
3.08699e-08 6.40252e-08 0.0
-2.26498e-08 6.95535e-08 0.0
-3.43492e-08 3.90285e-08 0.0
1.30863e-08 5.18169e-08 0.0
-5.73308e-08 -3.56032e-08 0.0
-5.5939e-08 -7.91577e-09 0.0
-8.91776e-09 -5.25017e-09 0.0
-2.87738e-08 -2.84682e-08 0.0
-1.83971e-08 -1.23361e-08 0.0
-4.4826e-08 -2.82058e-08 0.0
-1.90425e-08 -1.26869e-08 0.0
-2.28827e-08 -1.76029e-08 0.0
-2.82136e-08 -2.70527e-08 0.0
-2.43823e-08 -2.47453e-08 0.0
-1.82192e-08 -1.67479e-08 0.0
-9.04478e-09 -9.63541e-09 0.0
-1.13037e-08 -9.31724e-09 0.0
-8.74623e-09 -1.16293e-08 0.0
-5.97808e-11 -1.21663e-08 0.0
1.39734e-08 -2.1675e-08 0.0
3.13691e-08 -2.52943e-08 0.0
1.16317e-08 -1.4551e-10 0.0
4.20741e-08 4.31751e-08 0.0
-6.72526e-09 2.71682e-08 0.0
-7.12281e-08 1.85252e-08 0.0
-4.86902e-08 1.15386e-08 0.0
-4.96213e-08 2.71032e-08 0.0
-1.48884e-08 9.61627e-09 0.0
-9.09104e-09 4.18899e-09 0.0
-6.10494e-08 1.7333e-08 0.0
-1.32457e-08 1.05965e-08 0.0
-3.79819e-08 8.87025e-09 0.0
-1.39563e-08 1.55419e-08 0.0
-1.35464e-08 3.23612e-08 0.0
-5.03965e-09 1.11328e-08 0.0
-1.25407e-08 2.28067e-08 0.0
-9.16139e-09 1.69325e-08 0.0
-1.79098e-08 2.25387e-08 0.0
-1.46278e-08 1.66685e-08 0.0
-3.41355e-08 4.16413e-08 0.0
-8.40694e-09 1.46403e-08 0.0
-5.35901e-08 8.2685e-08 0.0
-1.98158e-08 3.32874e-08 0.0
-2.08912e-08 1.96767e-08 0.0
-2.39141e-08 1.25326e-08 0.0
-3.341e-08 5.33924e-09 0.0
-2.1116e-08 -5.52618e-09 0.0
-3.54212e-08 -1.38385e-08 0.0
VECTORS omega float
-0.0380492 -0.252633 0.0420927
0.128674 0.0964542 -0.0464951
-0.012142 -0.0582313 -0.00546083
-0.0600892 -0.101908 0.00585558
0.00279204 0.20887 0.0227216
0.0768217 0.104961 0.03166
0.0048012 -0.193691 0.0116381
-0.177876 -0.0122717 0.024886
0.128941 0.0221518 0.0155174
0.00321084 0.198483 0.00300226
0.00207344 -0.185329 0.0183825
-0.0802809 0.0572013 -0.000951449
0.0875889 -0.0611668 0.0470777
-0.00297855 0.190926 0.0135983
-0.00173385 -0.166254 0.0113023
0.0441065 -0.0361944 0.0996331
0.0063119 0.192469 -0.0216382
0.00209598 -0.046025 -0.0113787
0.0237828 -0.080916 0.102956
-0.00366574 0.0422311 0.00502188
0.0293832 -0.0191607 0.0439654
-0.0231662 0.0201495 0.0290809
-0.000691424 -0.0474052 0.0184152
-0.0031945 0.0383403 0.023277
0.0265431 -0.0188682 0.0144038
-0.00294036 -0.0401216 0.0102896
0.000160112 0.0221722 3.76493e-05
-0.00687906 0.0471117 0.0288827
0.0021718 -0.0211048 0.0693013
-0.00214403 -0.0435726 -0.0094915
-0.107879 -0.247901 0.048836
0.00141543 0.0548647 0.021361
-0.230674 0.22861 0.123662
0.277052 -0.0485969 -0.045762
0.0815818 -0.0244184 0.106651
-0.0109609 0.0608214 0.00398462
-0.00730093 -0.0657673 0.00704105
0.0754262 -0.110293 0.119595
-0.0419894 0.0193998 0.104843
0.002376 0.070109 0.00409374
-0.168732 1.14676 0.104684
-0.36355 -0.271719 -0.0284191
0.0952369 0.0885808 0.0400903
-0.0670093 -0.108275 0.0437192
-0.108404 -0.0966459 0.00842889
0.0817495 0.112748 0.011003
-0.111 0.0555232 0.0676275
0.125444 -0.0865222 -0.000517512
0.00975821 -0.0782184 0.107802
-0.0655764 0.0748029 0.0395744
0.126371 -0.0327168 -0.0483856
-0.0709648 0.0594261 0.0694986
-0.0895652 0.0172653 0.0487818
0.085134 -0.0524782 -0.0275008
-0.0947539 0.0493206 0.0272788
0.0636433 0.0901972 0.0480476
-0.0406479 -0.0779888 -0.00724282
-0.0124315 -0.00791209 0.00845173
-0.0312461 0.0912561 -0.0275489
0.0341553 0.00712831 0.0060101
-0.00645375 -0.0808078 0.0244483
-0.0202715 -0.0029022 -0.00139915
-0.00757077 0.0782832 0.0302451
0.0435888 -0.0048152 0.00531144
0.00801957 -0.0887516 0.0659378
0.0131861 0.00934206 0.00481913
-0.00178579 -0.0272455 0.0833178
-0.00787625 0.000209345 0.0208144
-9.86411e-05 0.011081 0.0432591
0.00572853 -0.000848564 0.0196577
-0.0252344 -0.00328099 -0.00477794
0.0128005 -0.00750001 0.0376938
0.00970932 0.00625065 0.0510535
-0.00865064 0.0125143 -0.051877
0.174168 -0.311253 0.0111438
-0.0754529 -0.0404771 -0.021918
-0.0734153 0.276803 0.00185209
0.176323 -0.191693 0.000275708
0.0609048 -0.29224 0.00572964
-0.107068 0.179413 0.0203354
-0.113608 0.297909 -0.0145145
-0.239045 0.0408569 0.00204771
0.317446 0.0765895 0.0657702
0.289512 -0.0466284 0.0688507
-0.238546 -0.0777125 -0.000967988
-0.121954 -0.193332 -0.00288695
-0.0491697 -0.220386 0.1052