# vtk DataFile Version 2.0
Generated by lpp.py
ASCII
DATASET POLYDATA
POINTS 400 float
0.0013268 0.000444 3.36586e-05
0.000912354 0.00128523 -1.66342e-05
0.000242781 0.000443344 -3.64628e-05
0.00183504 0.00127859 5.09221e-06
0.0022684 0.000435789 -1.24497e-05
0.00274124 0.00128787 4.63423e-05
0.00324731 0.000515734 4.67087e-05
0.00374522 0.0012914 -1.5404e-05
0.0046064 0.00119546 -2.0603e-05
0.00417349 0.000417288 3.04549e-05
0.00511692 0.000469682 4.04467e-05
0.00567057 0.00130815 -2.65834e-05
0.00664263 0.0012891 -2.02466e-06
0.00602248 0.000418612 -1.20537e-05
0.00693196 0.000444924 3.91278e-05
0.00824497 0.00117602 -1.82355e-06
0.00779488 0.000364615 3.24564e-05
0.00876686 0.000397946 -3.28708e-05
0.00930452 0.00138562 3.24568e-05
0.00975787 0.000490903 -2.76781e-05
0.0103879 0.00131206 -4.92787e-05
0.0113798 0.00139185 -4.32784e-06
0.0107657 0.000443925 -3.96086e-06
0.0117807 0.000485337 -1.32742e-05
0.0124075 0.00132904 1.95463e-05
0.012782 0.000442386 1.3181e-05
0.0134351 0.00122582 3.75182e-05
0.0136145 0.000329612 1.89547e-05
0.0143541 0.00161922 1.99029e-05
0.0143656 0.000726941 -4.71808e-05
0.0156484 0.00128525 1.72248e-05
0.0152283 0.000426629 3.7231e-06
0.0165511 0.00131657 3.54547e-05
0.0161585 0.000503464 -4.85386e-05
0.0177966 0.00133122 -3.92382e-05
0.0171616 0.000538643 -3.8784e-05
0.0182414 0.000486018 3.096e-05
0.0199987 0.00131744 4.93031e-05
0.0189205 0.00128032 6.72355e-06
0.0192498 0.000430473 -3.72737e-05
0.000909568 0.00230611 5.14548e-06
0.000385383 0.00315909 -4.9345e-05
0.00206917 0.00294763 -3.17454e-05
0.00232451 0.00212011 -1.41959e-06
0.00292639 0.00285083 3.50109e-05
0.00325718 0.00201925 -3.46654e-05
0.00386727 0.00297746 -3.02218e-05
0.00412935 0.00209039 3.70504e-05
0.00498473 0.00300239 3.07542e-05
0.0049767 0.00196045 -2.23732e-05
0.00564576 0.00243812 -2.11247e-06
0.00623716 0.00307358 -3.67063e-05
0.00642432 0.00213323 3.11799e-05
0.00699092 0.00270974 -2.75116e-05
0.00731811 0.00191049 4.80419e-05
0.00772754 0.00291294 1.77683e-05
0.00828707 0.00219869 -3.97226e-05
0.00876538 0.00311885 4.55657e-05
0.0092481 0.00230708 1.80717e-05
0.00980505 0.00312826 -3.93388e-05
0.0101366 0.00222382 2.40231e-05
0.010739 0.00309837 2.716e-05
0.0110969 0.00228204 -4.78087e-05
0.0116601 0.00309669 -4.25165e-05
0.0120597 0.00222633 -4.01526e-05
0.0126276 0.0031263 2.94528e-05
0.0131078 0.00223008 4.21294e-05
0.0136554 0.0031445 2.4953e-06
0.0141682 0.00242041 2.35941e-05
0.0146323 0.00314163 -2.89305e-05
0.0150821 0.00224325 3.21045e-05
0.015617 0.00308724 2.08022e-05
0.0160062 0.00209108 1.69816e-05
0.0165043 0.00284308 -1.31875e-05
0.0169289 0.00207814 -2.13541e-05
0.0173586 0.00302245 -2.48084e-05
0.0178649 0.00224465 7.17441e-06
0.0184444 0.00302944 -3.11061e-05
0.0188627 0.00220948 -6.697e-06
0.0194345 0.00303954 1.88296e-05
0.0198532 0.00217871 2.40593e-05
0.0013202 0.00346671 4.11056e-07
0.00154473 0.00438062 -3.43082e-05
0.000521329 0.00405565 4.11872e-05
0.00225577 0.00383352 4.14547e-05
0.00263025 0.00468333 2.79416e-05
0.0031394 0.00368831 -1.57031e-06
0.00360252 0.00470051 5.32063e-06
0.00402191 0.00391637 -2.6529e-06
0.00458861 0.00494701 -3.58607e-05
0.00499861 0.0039723 -2.13321e-05
0.00566454 0.00479156 -4.97251e-05
0.00597407 0.00390424 -2.41619e-05
0.00667804 0.00459881 -2.57589e-05
0.00702237 0.00365615 -4.22335e-05
0.0077473 0.00462595 4.30556e-05
0.00795968 0.00368252 4.42331e-05
0.00877632 0.00405978 -4.39636e-05
0.00979994 0.00487008 4.93343e-05
0.00960793 0.00400072 4.05756e-05
0.00870966 0.0049069 -1.72291e-05
0.0104228 0.00387975 -3.72271e-05
0.0107725 0.00466982 4.50596e-05
0.0112821 0.00394227 1.35023e-05
0.0119372 0.00475753 3.81834e-05
0.012142 0.00389486 3.14585e-06
0.012907 0.00492986 -2.4127e-05
0.013132 0.00399588 1.0814e-05
0.0137671 0.00483812 -4.51984e-05
0.0141885 0.00402786 1.00341e-06
0.0147116 0.00489073 6.87793e-06
0.0151572 0.00395787 1.87838e-05
0.0160831 0.00415494 4.33922e-05
0.0167806 0.00468952 2.18197e-05
0.0170323 0.00386886 -2.12721e-05
0.0176644 0.00460902 6.56493e-06
0.0179643 0.00377792 9.36883e-06
0.0186994 0.00453923 3.03201e-05
0.0194107 0.00392593 1.43967e-05
0.0197548 0.00479001 -2.66714e-05
0.000796276 0.00500013 1.15215e-05
0.00120148 0.00595104 1.46596e-05
0.000329727 0.00650308 -3.99128e-05
8.97422e-05 0.00571691 -3.26099e-05
0.00181712 0.0052181 -7.07934e-06
0.00213757 0.00645938 -2.06108e-05
0.0026348 0.00563276 3.54227e-05
0.00313293 0.00641138 -2.96496e-05
0.00358802 0.00562874 1.90715e-05
0.0044475 0.00591241 1.72497e-05
0.00536111 0.00576121 2.50127e-05
0.00595584 0.00650207 -4.27825e-05
0.00629635 0.00553444 2.43943e-05
0.00679926 0.00637466 -3.07296e-05
0.00720702 0.00549551 -2.4969e-05
0.00770679 0.00633528 1.47771e-05
0.00818022 0.0055594 -2.62417e-05
0.00864181 0.00633121 -3.20614e-05
0.00925992 0.00565922 -4.70071e-05
0.0101189 0.00574634 4.476e-05
0.0109334 0.00555199 -5.06646e-06
0.0113889 0.00651214 -4.22073e-05
0.011761 0.00566823 2.60985e-05
0.0123395 0.00640613 1.83575e-05
0.0125238 0.00559926 -2.28987e-05
0.0132202 0.00609412 2.90979e-05
0.0141598 0.00577198 4.28851e-05
0.0151828 0.00589397 -1.46308e-05
0.0156821 0.00502163 -7.56683e-06
0.0160605 0.00623907 -4.83823e-05
0.0165197 0.00551929 2.89194e-05
0.0169927 0.00632271 3.21564e-05
0.0173218 0.00537657 -4.85919e-05
0.0180811 0.00628268 -1.12464e-05
0.0181461 0.00535614 3.12852e-05
0.0192966 0.00636087 2.46256e-05
0.0190613 0.00549172 -4.44854e-05
0.00127524 0.00681474 -2.73404e-05
0.00115252 0.00795937 -3.38667e-05
0.000611294 0.00726015 -4.2113e-05
0.000120906 0.0080763 1.49646e-05
0.00191409 0.0074258 7.74856e-06
0.00206673 0.00829894 5.5329e-07
0.00284489 0.00725638 3.67542e-05
0.00293948 0.00820006 1.2865e-05
0.00375753 0.00772309 -4.70278e-05
0.00400801 0.00673763 -1.13161e-05
0.00473212 0.00768263 1.72877e-05
0.00506368 0.00677415 -4.33679e-05
0.00569824 0.00765946 7.98975e-06
0.00647419 0.00722425 -4.89198e-05
0.00705177 0.00808605 -1.8846e-05
0.00737107 0.00719523 -2.80691e-05
0.00793368 0.00787527 -4.34141e-05
0.00825117 0.00712242 2.59556e-05
0.00885447 0.00784606 -3.81694e-05
0.00942438 0.006922 -2.37608e-06
0.00984486 0.00782677 -1.57412e-05
0.0104137 0.0066757 -1.47472e-05
0.0107537 0.0082355 4.979e-05
0.0110332 0.00735958 2.22644e-05
0.0117325 0.0082113 -4.55597e-05
0.012047 0.00730176 -4.5975e-05
0.0128658 0.00785305 4.23607e-05
0.0130291 0.00699361 4.20701e-05
0.0138592 0.00781672 -5.04024e-06
0.0139127 0.00679985 1.64328e-05
0.0148626 0.0079226 -1.6913e-05
0.0149162 0.00691231 -4.21217e-05
0.0158312 0.00811092 -3.94419e-05
0.0159242 0.00713277 -1.21974e-05
0.0166928 0.00770121 -3.70828e-05
0.0174977 0.00715095 -3.33274e-05
0.0181654 0.00805584 -3.83096e-05
0.0185143 0.00717469 -2.02095e-05
0.0191864 0.00778173 -4.84051e-05
0.0197662 0.00712992 -3.46879e-05
0.00161041 0.00915031 2.66777e-05
0.000813615 0.00875847 -3.96098e-06
0.000744041 0.00962906 -1.72888e-05
0.00233077 0.00997643 2.41907e-05
0.00259296 0.00906505 4.87165e-05
0.00324164 0.00972712 7.50784e-06
0.00348929 0.00889125 -7.08428e-06
0.0042034 0.00954442 6.12283e-06
0.00436876 0.00858035 1.74262e-06
0.00517905 0.00943762 -2.81666e-05
0.00536455 0.00853092 -1.04316e-05
0.00612604 0.00937688 9.49774e-06
0.00624484 0.00848873 -4.45245e-05
0.00695689 0.00902671 3.54547e-06
0.007419 0.00986994 -2.7703e-05
0.00780118 0.00871421 -4.92713e-05
0.00821557 0.00951181 1.26179e-05
0.0087207 0.00878935 4.93873e-05
0.00911511 0.00970317 -4.18982e-05
0.00973141 0.00886008 -9.33208e-06
0.0106838 0.00928965 -3.72943e-05
0.0113895 0.00989394 1.32074e-05
0.0116273 0.00908065 3.24679e-05
0.0123135 0.00976107 -1.82378e-05
0.0125653 0.00876188 4.17083e-05
0.0132304 0.0096257 2.0062e-05
0.0135665 0.00880517 -3.30909e-05
0.0140525 0.00959959 -4.57402e-05
0.014556 0.00882827 -3.07794e-05
0.0149292 0.00967052 4.85236e-05
0.0155055 0.00898107 -3.2558e-05
0.0158231 0.00994018 -4.73944e-05
0.0164774 0.00883744 -2.5672e-05
0.0167155 0.00969312 -3.5681e-05
0.0173322 0.00835096 2.81917e-06
0.0174383 0.00923195 -4.5525e-06
0.0199686 0.00908488 -3.41589e-05
0.0183337 0.00993147 1.70983e-05
0.0183552 0.00898667 -3.29151e-05
0.0191618 0.00955473 4.46827e-05
0.0191609 0.00861107 -3.50995e-05
0.00162507 0.0115948 -2.75196e-05
0.0014383 0.0100978 -3.628e-05
0.00102156 0.0108599 -3.81409e-05
0.000114427 0.0110251 4.26166e-05
0.00193157 0.0107565 2.8646e-05
0.00257068 0.0113924 1.79805e-07
0.00298785 0.0105897 -3.0738e-05
0.00354519 0.0113159 1.32908e-05
0.00388377 0.0104448 3.19371e-06
0.00450861 0.0112757 -4.05009e-05
0.00490268 0.0103851 2.58338e-05
0.00544887 0.0112336 5.57899e-06
0.00581997 0.0102249 3.55182e-05
0.00635227 0.0110319 -2.60959e-05
0.00663493 0.0101978 1.90003e-05
0.00728318 0.0108289 2.40728e-05
0.00806658 0.0115377 -1.09524e-05
0.00824148 0.0105083 -2.41459e-05
0.00922436 0.010662 1.14157e-05
0.00901504 0.0115588 -2.28614e-05
0.00998782 0.0100987 7.96265e-06
0.0100723 0.0110616 4.36203e-05
0.0107902 0.0104745 4.40746e-05
0.0109923 0.011364 4.26806e-05
0.0117361 0.0107241 1.59016e-05
0.0126671 0.0106159 -4.05226e-06
0.0131432 0.0112627 -3.49974e-05
0.0135933 0.0104324 -2.12959e-05
0.0139571 0.0112399 -3.47829e-05
0.0145091 0.0103613 -6.10015e-06
0.0148687 0.0112148 -4.9699e-05
0.015832 0.0110014 -3.49785e-05
0.0166053 0.0105625 -3.04875e-05
0.0166474 0.0115683 2.14731e-05
0.0173398 0.01107 4.23831e-06
0.0174748 0.0102045 1.54215e-05
0.0183151 0.0109069 -4.02054e-05
0.0190992 0.01043 -1.5365e-05
0.0192349 0.01131 -1.60515e-05
0.0199549 0.0101228 -4.17269e-05
0.00141173 0.012654 1.39627e-05
0.000706119 0.0118008 -9.96495e-06
0.000471531 0.0127299 2.195e-05
0.00228462 0.0123216 1.50647e-05
0.00296574 0.0130597 -2.83946e-05
0.00320932 0.012145 2.84116e-05
0.00406371 0.012944 -8.8818e-06
0.00408837 0.0120336 -1.71454e-05
0.00496519 0.0130886 4.3363e-05
0.00506161 0.0121532 3.19528e-05
0.00581399 0.0129015 -3.24457e-07
0.00608361 0.0119606 1.74786e-05
0.00667436 0.0126462 -2.9504e-05
0.00709711 0.0117946 2.61725e-05
0.00758662 0.0126997 -7.28073e-06
0.00857136 0.0124189 2.21972e-05
0.0093117 0.013011 3.4178e-05
0.00983764 0.0119907 -3.43726e-05
0.0101538 0.0129276 2.4284e-05
0.0107752 0.0122972 4.99362e-05
0.0111725 0.0131383 1.79808e-05
0.0119293 0.011731 3.01021e-05
0.0120893 0.012801 -4.81269e-05
0.012839 0.0119913 3.49515e-06
0.0131417 0.0128312 8.09002e-06
0.0137886 0.0121019 -1.27408e-05
0.0142801 0.0129712 1.51186e-05
0.0147472 0.012196 -2.52694e-05
0.0154883 0.012798 -2.24734e-05
0.0156086 0.0118901 -4.84058e-07
0.0163445 0.0124315 2.73575e-05
0.017159 0.0123297 2.6071e-05
0.017254 0.013197 -3.7354e-05
0.0179098 0.0118429 -4.54593e-05
0.017984 0.0127927 -4.8395e-05
0.0187249 0.0130942 7.82155e-06
0.0188733 0.0121959 -1.47463e-05
0.0195656 0.0129237 -3.72359e-05
0.0198106 0.01205 -4.13942e-05
0.00112709 0.0135726 -4.1589e-05
0.000974946 0.0145443 -1.31753e-05
0.000194447 0.0136116 -1.17246e-06
0.00192455 0.014566 -5.27218e-06
0.00203225 0.0133431 2.70269e-05
0.00269081 0.0140035 -4.69919e-05
0.00309685 0.0148444 2.49655e-05
0.00362894 0.0138003 2.96183e-05
0.00400495 0.0146146 1.43924e-05
0.00461895 0.0139048 -3.62044e-05
0.0052343 0.0145402 2.52958e-05
0.00556086 0.0137734 -4.96651e-05
0.00609075 0.0145262 -1.66336e-06
0.0064708 0.0136462 -6.05535e-06
0.0070122 0.0145723 -2.79437e-05
0.0074549 0.0137017 1.57621e-06
0.00807171 0.0145647 -3.93501e-06
0.00840569 0.0134474 4.44824e-05
0.00914104 0.0140481 4.05064e-05
0.00978538 0.0147256 -8.94147e-06
0.00897586 0.014982 -1.15952e-07
0.0101044 0.0138505 -3.1985e-05
0.0106258 0.0146534 2.67646e-06
0.0110386 0.0139562 8.79731e-06
0.01151 0.0146907 -1.90989e-05
0.0118299 0.0137573 1.18363e-05
0.0123468 0.0144655 -1.70971e-05
0.0127122 0.0136427 2.04004e-05
0.0132718 0.0143818 -4.99115e-05
0.0136637 0.0135853 4.34762e-05
0.0142095 0.0146395 2.36495e-05
0.014509 0.0138164 1.50053e-05
0.0151561 0.0145936 -1.68329e-05
0.0153907 0.013695 2.59986e-05
0.0161651 0.0144174 -4.8797e-05
0.0163004 0.0133868 -2.94781e-05
0.017175 0.0141678 -3.80464e-05
0.0180299 0.0146261 6.36771e-07
0.0180889 0.0136986 -4.54767e-05
0.0199728 0.0145336 -2.39016e-05
0.0189648 0.0145419 -3.38088e-05
0.0192919 0.013738 6.46138e-06
0.00146312 0.0153981 3.1619e-05
0.00105804 0.0162516 -3.75421e-05
0.0005409 0.0153938 1.65265e-05
0.000169593 0.0162431 3.22872e-05
0.0020128 0.0162626 -2.29225e-05
0.00238984 0.0154159 -4.48401e-05
0.00303965 0.0161904 -1.88293e-05
0.00377223 0.0155208 5.22691e-06
0.00402077 0.0163414 -2.84806e-06
0.00467243 0.0152444 3.75063e-05
0.00494249 0.0161969 -2.57249e-06
0.00560615 0.015335 -3.31627e-05
0.0059638 0.0162179 4.29286e-05
0.00658692 0.0154126 3.83299e-05
0.00695239 0.0162874 8.05502e-06
0.00750757 0.0153694 -1.60873e-07
0.00783133 0.0162826 4.44584e-05
0.00842143 0.0156744 1.77529e-05
0.00922706 0.0160937 1.78253e-05
0.00996659 0.0155481 1.34032e-05
0.0100537 0.0163673 -1.78006e-05
0.010808 0.016349 3.69213e-05
0.0109712 0.0154959 -2.36735e-05
0.0116638 0.0162677 -3.81553e-05
0.0120531 0.0154056 -3.46021e-05
0.0126619 0.0162179 4.68532e-05
0.0130805 0.0153171 -4.47667e-06
0.0136542 0.0163157 -3.82493e-05
0.0140361 0.0155213 4.44816e-05
0.0145701 0.016297 2.60965e-05
0.0149519 0.015479 -1.42244e-05
0.0154885 0.0162595 -2.63927e-05
0.0158875 0.0153997 1.45032e-05
0.0163681 0.0162682 1.42827e-05
0.0169089 0.0152249 8.61202e-06
0.0172887 0.0162315 1.04172e-05
0.017821 0.0154405 -1.6534e-05
0.0182928 0.0162461 1.14277e-05
0.0186923 0.0153946 3.47044e-05
0.0192674 0.0162476 4.63278e-05
0.0196212 0.0154169 -1.23126e-05
VERTICES 400 800
1 0
1 1
1 2
1 3
1 4
1 5
1 6
1 7
1 8
1 9
1 10
1 11
1 12
1 13
1 14
1 15
1 16
1 17
1 18
1 19
1 20
1 21
1 22
1 23
1 24
1 25
1 26
1 27
1 28
1 29
1 30
1 31
1 32
1 33
1 34
1 35
1 36
1 37
1 38
1 39
1 40
1 41
1 42
1 43
1 44
1 45
1 46
1 47
1 48
1 49
1 50
1 51
1 52
1 53
1 54
1 55
1 56
1 57
1 58
1 59
1 60
1 61
1 62
1 63
1 64
1 65
1 66
1 67
1 68
1 69
1 70
1 71
1 72
1 73
1 74
1 75
1 76
1 77
1 78
1 79
1 80
1 81
1 82
1 83
1 84
1 85
1 86
1 87
1 88
1 89
1 90
1 91
1 92
1 93
1 94
1 95
1 96
1 97
1 98
1 99
1 100
1 101
1 102
1 103
1 104
1 105
1 106
1 107
1 108
1 109
1 110
1 111
1 112
1 113
1 114
1 115
1 116
1 117
1 118
1 119
1 120
1 121
1 122
1 123
1 124
1 125
1 126
1 127
1 128
1 129
1 130
1 131
1 132
1 133
1 134
1 135
1 136
1 137
1 138
1 139
1 140
1 141
1 142
1 143
1 144
1 145
1 146
1 147
1 148
1 149
1 150
1 151
1 152
1 153
1 154
1 155
1 156
1 157
1 158
1 159
1 160
1 161
1 162
1 163
1 164
1 165
1 166
1 167
1 168
1 169
1 170
1 171
1 172
1 173
1 174
1 175
1 176
1 177
1 178
1 179
1 180
1 181
1 182
1 183
1 184
1 185
1 186
1 187
1 188
1 189
1 190
1 191
1 192
1 193
1 194
1 195
1 196
1 197
1 198
1 199
1 200
1 201
1 202
1 203
1 204
1 205
1 206
1 207
1 208
1 209
1 210
1 211
1 212
1 213
1 214
1 215
1 216
1 217
1 218
1 219
1 220
1 221
1 222
1 223
1 224
1 225
1 226
1 227
1 228
1 229
1 230
1 231
1 232
1 233
1 234
1 235
1 236
1 237
1 238
1 239
1 240
1 241
1 242
1 243
1 244
1 245
1 246
1 247
1 248
1 249
1 250
1 251
1 252
1 253
1 254
1 255
1 256
1 257
1 258
1 259
1 260
1 261
1 262
1 263
1 264
1 265
1 266
1 267
1 268
1 269
1 270
1 271
1 272
1 273
1 274
1 275
1 276
1 277
1 278
1 279
1 280
1 281
1 282
1 283
1 284
1 285
1 286
1 287
1 288
1 289
1 290
1 291
1 292
1 293
1 294
1 295
1 296
1 297
1 298
1 299
1 300
1 301
1 302
1 303
1 304
1 305
1 306
1 307
1 308
1 309
1 310
1 311
1 312
1 313
1 314
1 315
1 316
1 317
1 318
1 319
1 320
1 321
1 322
1 323
1 324
1 325
1 326
1 327
1 328
1 329
1 330
1 331
1 332
1 333
1 334
1 335
1 336
1 337
1 338
1 339
1 340
1 341
1 342
1 343
1 344
1 345
1 346
1 347
1 348
1 349
1 350
1 351
1 352
1 353
1 354
1 355
1 356
1 357
1 358
1 359
1 360
1 361
1 362
1 363
1 364
1 365
1 366
1 367
1 368
1 369
1 370
1 371
1 372
1 373
1 374
1 375
1 376
1 377
1 378
1 379
1 380
1 381
1 382
1 383
1 384
1 385
1 386
1 387
1 388
1 389
1 390
1 391
1 392
1 393
1 394
1 395
1 396
1 397
1 398
1 399
POINT_DATA 400
VECTORS f float
-8.57541e-09 -1.56964e-09 0.0
-1.7099e-08 7.05482e-09 0.0
4.69903e-09 -2.15077e-09 0.0
-1.41981e-08 -5.00617e-09 0.0
-7.22876e-09 -7.71687e-10 0.0
-1.18571e-08 3.93725e-11 0.0
-7.66539e-09 1.22045e-09 0.0
-9.52023e-09 2.96179e-09 0.0
-7.64336e-09 1.17484e-09 0.0
-4.69474e-09 7.78954e-10 0.0
-5.28718e-09 8.92784e-10 0.0
-1.62363e-08 3.34937e-10 0.0
-1.30539e-08 2.81487e-10 0.0
-3.72079e-09 4.29768e-10 0.0
-3.501e-09 1.57496e-09 0.0
-1.63868e-08 -5.28178e-09 0.0
7.71778e-11 -1.7126e-09 0.0
6.25359e-10 1.19323e-09 0.0
-2.13448e-08 -1.15882e-08 0.0
-3.30304e-09 -3.70676e-09 0.0
-1.60401e-08 -8.77035e-09 0.0
-1.81902e-08 -4.56328e-09 0.0
-3.4615e-09 -2.63904e-09 0.0
-9.33937e-09 -2.21244e-09 0.0
-1.8641e-08 4.69324e-11 0.0
-6.70244e-09 -1.77364e-10 0.0
-2.05231e-08 -4.58419e-10 0.0
-4.60582e-09 4.09292e-10 0.0
-2.27047e-08 1.58974e-09 0.0
-1.36361e-08 -3.1359e-10 0.0
-1.95529e-08 -1.10091e-09 0.0
-1.09453e-08 -5.18065e-11 0.0
-1.18901e-08 -6.50937e-09 0.0
-1.01272e-08 7.55465e-10 0.0
-2.16204e-08 -4.22889e-09 0.0
-8.88256e-09 -9.34148e-09 0.0
-4.96016e-09 -1.66308e-09 0.0
-1.94723e-08 -9.4555e-09 0.0
-2.35553e-08 -2.75126e-09 0.0
-5.83374e-10 2.1196e-09 0.0
-4.61999e-08 7.88726e-09 0.0
-5.07942e-08 -7.88702e-09 0.0
-3.14669e-08 -6.53567e-09 0.0
-2.80062e-08 -5.08992e-09 0.0
-2.4061e-08 -1.8594e-09 0.0
-1.97062e-08 2.33308e-09 0.0
-4.58926e-08 4.49339e-09 0.0
-1.83523e-08 4.19219e-09 0.0
-2.7569e-08 -3.65111e-09 0.0
-1.72604e-08 1.92058e-09 0.0
-1.67356e-08 -2.57974e-10 0.0
-3.09881e-08 -2.80234e-09 0.0
-1.90891e-08 -5.45796e-10 0.0
-1.70064e-08 1.76262e-09 0.0
-2.48893e-08 3.78038e-09 0.0
-2.04415e-08 -3.85356e-09 0.0
-4.6385e-08 -7.43496e-09 0.0
-3.61575e-08 -8.0774e-09 0.0
-2.39356e-08 -7.69985e-09 0.0
-4.13307e-08 -1.40728e-08 0.0
-2.80753e-08 -1.16632e-08 0.0
-3.05871e-08 -9.39354e-09 0.0
-2.77303e-08 -8.43639e-09 0.0
-4.19943e-08 -7.60488e-09 0.0
-2.64748e-08 -2.65798e-09 0.0
-4.69354e-08 -4.72875e-09 0.0
-4.11307e-08 -2.65168e-09 0.0
-5.00718e-08 -2.43522e-09 0.0
-2.75867e-08 -1.25004e-09 0.0
-4.55847e-08 -1.85074e-09 0.0
-3.68454e-08 3.09727e-09 0.0
-5.4453e-08 4.65917e-09 0.0
-3.01923e-08 2.85088e-09 0.0
-3.83178e-08 1.25181e-09 0.0
-3.45032e-08 -1.27985e-09 0.0
-3.94035e-08 -5.58178e-09 0.0
-5.68931e-08 -6.78034e-09 0.0
-4.71935e-08 -7.2492e-09 0.0
-5.20578e-08 -8.27948e-09 0.0
-6.76019e-08 -1.23682e-08 0.0
-5.78837e-08 -1.57861e-08 0.0
-6.71727e-08 -1.58331e-08 0.0
-3.80146e-08 -7.06018e-09 0.0
-4.2343e-08 -8.75118e-09 0.0
-4.30217e-08 -7.11789e-09 0.0
-4.32855e-08 -5.65057e-09 0.0
-3.60351e-08 -6.14358e-10 0.0
-4.16121e-08 2.98896e-09 0.0
-4.85665e-08 4.02505e-09 0.0
-6.69624e-08 -1.37236e-09 0.0
-6.10738e-08 -2.27344e-09 0.0
-6.37473e-08 -7.11983e-09 0.0
-3.54284e-08 -4.69758e-09 0.0
-5.46412e-08 -9.31396e-09 0.0
-4.03438e-08 -4.65841e-09 0.0
-6.71016e-08 -1.39519e-08 0.0
-3.33687e-08 -6.02426e-09 0.0
-3.96798e-08 -6.80664e-09 0.0
-4.47794e-08 -9.62452e-09 0.0
-3.11341e-08 -8.47803e-09 0.0
-3.7714e-08 -5.69406e-09 0.0
-2.73053e-08 -7.00007e-09 0.0
-3.66683e-08 -9.55684e-09 0.0
-2.78869e-08 -8.3145e-09 0.0
-4.51809e-08 -2.28588e-09 0.0
-2.8387e-08 -1.63559e-09 0.0
-4.87439e-08 -1.68027e-09 0.0
-6.54301e-08 -4.28577e-09 0.0
-3.92631e-08 -2.18164e-09 0.0
-6.07702e-08 -2.32794e-09 0.0
-5.85439e-08 -2.23446e-09 0.0
-5.60747e-08 -1.20337e-09 0.0
-5.2572e-08 -4.30394e-09 0.0
-4.07892e-08 -5.92e-09 0.0
-5.23221e-08 -8.83866e-09 0.0
-4.10395e-08 -6.76928e-09 0.0
-5.63921e-08 -8.98216e-09 0.0
-8.17349e-08 -1.38659e-08 0.0
-4.01909e-08 -7.09017e-09 0.0
-6.49966e-08 -1.18181e-08 0.0
-7.86353e-08 -1.49888e-08 0.0
-5.14432e-08 -8.4383e-09 0.0
-3.27461e-08 -4.68985e-09 0.0
-5.20016e-08 -9.62433e-09 0.0
-4.98253e-08 -8.10126e-09 0.0
-6.73248e-08 -6.85612e-09 0.0
-5.01564e-08 -4.92007e-09 0.0
-4.13059e-08 -2.07806e-09 0.0
-6.13621e-08 2.26517e-09 0.0
-3.72545e-08 1.0935e-10 0.0
-6.77495e-08 -8.0847e-09 0.0
-3.56384e-08 -5.47093e-09 0.0
-3.16959e-08 -5.50376e-09 0.0
-5.18405e-08 -1.14957e-08 0.0
-5.27392e-08 -1.20914e-08 0.0
-5.71638e-08 -1.22657e-08 0.0
-4.18346e-08 -8.36306e-09 0.0
-5.7546e-08 -8.88658e-09 0.0
-4.75221e-08 -6.49785e-09 0.0
-4.1733e-08 -1.05635e-08 0.0
-4.13885e-08 -8.21101e-09 0.0
-6.01166e-08 -4.20122e-09 0.0
-4.34463e-08 -2.07712e-09 0.0
-5.38347e-08 -4.37742e-10 0.0
-2.90181e-08 -1.34697e-10 0.0
-5.24295e-08 2.31057e-09 0.0
-8.17823e-08 -1.08944e-09 0.0
-6.72871e-08 -5.29442e-09 0.0
-5.20245e-08 -3.18519e-09 0.0
-5.39094e-08 -3.66415e-09 0.0
-5.27357e-08 -5.74664e-09 0.0
-3.76181e-08 -5.35403e-09 0.0
-3.58206e-08 -6.38659e-09 0.0
-8.00481e-08 -1.18306e-08 0.0
-5.24342e-08 -8.49455e-09 0.0
-4.57429e-08 -9.54634e-09 0.0
-5.19233e-08 -9.95169e-09 0.0
-3.75651e-08 -5.03642e-09 0.0
-7.19201e-08 -8.14156e-09 0.0
-3.85284e-08 -5.12202e-09 0.0
-8.02382e-08 -1.04154e-08 0.0
-5.64377e-08 -5.59949e-09 0.0
-4.51345e-08 -3.53947e-09 0.0
-7.08082e-08 -3.84328e-09 0.0
-5.20564e-08 -3.02627e-09 0.0
-6.62853e-08 -4.80926e-09 0.0
-6.00656e-08 7.34328e-10 0.0
-5.8334e-08 -8.75636e-09 0.0
-8.40263e-08 -1.32405e-08 0.0
-6.45889e-08 -1.1672e-08 0.0
-5.42155e-08 -1.11496e-08 0.0
-7.49036e-08 -1.90218e-08 0.0
-4.85459e-08 -1.08056e-08 0.0
-3.44236e-08 -6.99464e-09 0.0
-4.34962e-08 -7.94286e-09 0.0
-7.16954e-08 -1.44669e-08 0.0
-7.3611e-08 -1.29197e-08 0.0
-6.37423e-08 -7.59225e-09 0.0
-7.4068e-08 -1.30434e-08 0.0
-8.50776e-08 -2.54639e-09 0.0
-3.51269e-08 -1.65564e-09 0.0
-6.90381e-08 -7.4561e-11 0.0
-7.28094e-08 -1.48366e-10 0.0
-5.31359e-08 1.15701e-09 0.0
-4.50982e-08 1.27807e-09 0.0
-8.3299e-08 2.68208e-10 0.0
-5.84821e-08 -5.82595e-10 0.0
-5.9012e-08 -2.11533e-09 0.0
-9.0419e-08 -5.58923e-09 0.0
-6.55719e-08 -3.26857e-09 0.0
-6.53125e-08 -3.84141e-09 0.0
-6.54489e-08 -5.39409e-09 0.0
-7.43714e-08 -1.00276e-08 0.0
-4.97681e-08 -5.87564e-09 0.0
-7.36268e-08 -9.94062e-09 0.0
-5.09908e-08 -6.53229e-09 0.0
-5.69386e-08 -7.96636e-09 0.0
-7.22524e-08 -5.59329e-09 0.0
-3.3585e-08 -3.49556e-09 0.0
-5.61621e-08 -5.42195e-09 0.0
-6.42999e-08 -3.56111e-09 0.0
-6.56294e-08 -4.18422e-09 0.0
-4.53059e-08 -3.60963e-09 0.0
-4.58794e-08 -4.28848e-09 0.0
-6.68006e-08 -9.45387e-09 0.0
-9.22666e-08 -1.28566e-08 0.0
-5.38791e-08 -1.0374e-08 0.0
-6.72416e-08 -1.21363e-08 0.0
-6.19016e-08 -1.55828e-08 0.0
-3.6304e-08 -8.75126e-09 0.0
-5.51825e-08 -1.43975e-08 0.0
-7.16318e-08 -2.12596e-08 0.0
-4.73443e-08 -1.12094e-08 0.0
-5.6595e-08 -1.26726e-08 0.0
-6.01254e-08 -1.10627e-08 0.0
-7.21798e-08 -7.94636e-09 0.0
-9.7005e-08 -1.01348e-08 0.0
-7.93303e-08 -2.67935e-09 0.0
-4.93666e-08 1.92634e-09 0.0
-4.8291e-08 1.12603e-09 0.0
-8.72943e-08 3.74412e-09 0.0
-8.69299e-08 2.72617e-09 0.0
-3.57334e-08 3.74827e-10 0.0
-6.80723e-08 3.87607e-10 0.0
-4.03582e-08 -6.71623e-10 0.0
-6.63208e-08 -1.56403e-09 0.0
-4.4752e-08 -1.96782e-09 0.0
-5.81792e-08 -2.62078e-09 0.0
-6.99614e-08 -2.79487e-09 0.0
-5.79674e-08 -3.62268e-09 0.0
-3.74594e-08 -2.77641e-09 0.0
-4.33653e-08 -5.15589e-09 0.0
-5.58087e-08 -5.92419e-09 0.0
-7.86292e-08 -9.18481e-09 0.0
-5.35036e-08 -5.01308e-09 0.0
-6.2089e-08 -6.51034e-09 0.0
-5.41808e-08 -5.50013e-09 0.0
-4.37893e-08 -5.05321e-09 0.0
-5.37827e-08 -2.37833e-09 0.0
-4.36226e-08 -2.40928e-09 0.0
-4.53001e-08 -2.38277e-09 0.0
-4.3584e-08 -2.91329e-09 0.0
-3.60011e-08 -1.19124e-09 0.0
-6.23777e-08 -3.26849e-09 0.0
-4.29347e-08 -3.08852e-09 0.0
-4.55458e-08 -5.2084e-09 0.0
-8.01104e-08 -1.02871e-08 0.0
-5.3224e-08 -9.58978e-09 0.0
-9.16684e-08 -1.8038e-08 0.0
-4.85235e-08 -1.30019e-08 0.0
-5.37564e-08 -1.36943e-08 0.0
-5.74326e-08 -1.76387e-08 0.0
-4.23966e-08 -1.23926e-08 0.0
-6.02834e-08 -2.01886e-08 0.0
-5.31874e-08 -5.3335e-09 0.0
-8.08725e-08 -1.82375e-08 0.0
-6.52923e-08 -4.52558e-09 0.0
-5.41027e-08 -2.51817e-09 0.0
-5.6041e-08 -6.14238e-10 0.0
-6.39961e-08 8.43553e-10 0.0
-4.90517e-08 2.52961e-09 0.0
-6.77355e-08 5.36393e-09 0.0
-6.85466e-08 3.90314e-09 0.0
-4.53482e-08 1.47137e-09 0.0
-3.52271e-08 -7.86104e-10 0.0
-7.1023e-08 -1.29611e-09 0.0
-2.95229e-08 -2.14013e-09 0.0
-4.30389e-08 -2.08361e-09 0.0
-6.01228e-08 -5.1162e-09 0.0
-4.79426e-08 -3.87684e-09 0.0
-5.08322e-08 -3.95244e-09 0.0
-4.37624e-08 -4.04428e-09 0.0
-3.20684e-08 -3.5178e-09 0.0
-5.9026e-08 -6.37176e-09 0.0
-5.41909e-08 -3.22016e-09 0.0
-4.0277e-08 -3.62028e-09 0.0
-4.62212e-08 -3.28466e-09 0.0
-5.30694e-08 -5.31116e-09 0.0
-3.73843e-08 -8.80543e-10 0.0
-5.69597e-08 -3.47643e-09 0.0
-3.80812e-08 -2.0426e-09 0.0
-4.88835e-08 -1.11093e-09 0.0
-4.93368e-08 -4.37022e-09 0.0
-4.55738e-08 -4.53827e-09 0.0
-4.66346e-08 -7.94853e-09 0.0
-4.21063e-08 -6.70918e-09 0.0
-2.4933e-08 -8.041e-09 0.0
-6.63535e-08 -1.7888e-08 0.0
-4.05759e-08 -1.58306e-08 0.0
-5.7355e-08 -1.98508e-08 0.0
-3.33177e-08 -1.47291e-08 0.0
-6.45523e-08 -2.29319e-08 0.0
-6.99346e-08 -7.32054e-09 0.0
-5.93895e-08 2.70985e-09 0.0
-4.06032e-08 1.71521e-08 0.0
-5.59461e-08 -1.73787e-09 0.0
-2.90844e-08 1.25089e-08 0.0
-7.84764e-08 4.91168e-09 0.0
-2.69977e-08 5.80057e-09 0.0
-7.36486e-08 2.43615e-09 0.0
-5.88485e-08 -1.75559e-09 0.0
-3.62103e-08 -1.78662e-09 0.0
-4.60546e-08 -5.12782e-09 0.0
-5.46788e-08 -5.8942e-09 0.0
-3.06776e-08 -3.99045e-09 0.0
-4.77699e-08 -4.68472e-09 0.0
-2.77675e-08 -1.22651e-09 0.0
-4.34418e-08 -3.7891e-09 0.0
-3.88962e-08 -4.47655e-09 0.0
-2.31873e-08 -2.40851e-09 0.0
-2.7869e-08 -3.13925e-09 0.0
-6.48462e-08 -4.90591e-09 0.0
-2.42747e-08 -2.53349e-09 0.0
-2.10526e-08 -1.16283e-09 0.0
-5.06788e-08 -2.12933e-09 0.0
-3.65289e-08 -8.24182e-10 0.0
-3.68239e-08 -1.74187e-09 0.0
-3.41718e-08 -1.69775e-09 0.0
-1.92801e-08 -1.3801e-09 0.0
-2.68532e-08 -1.26229e-09 0.0
-1.94212e-08 1.99968e-09 0.0
-2.50171e-08 2.93535e-10 0.0
-2.64242e-08 -3.35607e-10 0.0
-1.72666e-08 -2.08104e-09 0.0
-2.98571e-08 -4.90823e-09 0.0
-1.61688e-08 -4.09925e-09 0.0
-2.7738e-08 -9.02926e-09 0.0
-1.1936e-08 -6.53137e-09 0.0
-1.62842e-08 -8.8599e-09 0.0
-1.45019e-08 -8.47857e-09 0.0
-2.3058e-08 -2.42696e-08 0.0
-2.8808e-08 -1.31305e-08 0.0
-1.53937e-08 -1.13821e-09 0.0
-6.77015e-09 -1.17768e-08 0.0
-1.17389e-08 1.35593e-08 0.0
3.23649e-09 -6.91841e-10 0.0
-1.92575e-09 6.53999e-09 0.0
-9.36131e-09 -1.22628e-08 0.0
-5.09543e-09 2.01982e-08 0.0
-3.23433e-09 7.59896e-09 0.0
-7.97226e-09 7.50425e-09 0.0
-5.95483e-09 8.60637e-09 0.0
-1.95255e-08 -4.7046e-10 0.0
-1.25686e-08 -3.86719e-09 0.0
-2.22304e-08 -2.67267e-09 0.0
-2.5448e-08 -2.01085e-09 0.0
-2.11446e-08 -2.54358e-09 0.0
-1.80306e-08 -1.84134e-09 0.0
-1.96433e-08 -2.82218e-09 0.0
-2.07985e-08 -1.596e-09 0.0
-2.58895e-08 -1.49927e-09 0.0
-2.68863e-08 -1.22265e-09 0.0
-4.11566e-08 -4.77882e-09 0.0
-2.70551e-08 -1.665e-09 0.0
-1.66381e-08 -7.48929e-10 0.0
-2.85001e-08 -2.78027e-09 0.0
-2.77647e-08 4.10296e-10 0.0
-2.15175e-08 1.4825e-09 0.0
-2.18104e-08 4.08874e-10 0.0
-9.52586e-09 5.41262e-10 0.0
-4.26674e-09 8.49792e-10 0.0
-1.2338e-08 -9.59849e-10 0.0
-4.47489e-09 2.59318e-10 0.0
-4.76871e-09 1.05248e-09 0.0
-1.11522e-08 1.51676e-10 0.0
-6.54479e-09 -1.08416e-09 0.0
-1.03939e-08 -2.72194e-09 0.0
-3.25108e-09 -1.94151e-09 0.0
-1.40495e-08 -7.19708e-09 0.0
-8.06449e-09 -3.07206e-09 0.0
-1.36277e-08 -5.80687e-09 0.0
-9.78722e-09 -3.43804e-09 0.0
-1.47877e-08 -4.9093e-09 0.0
-3.03803e-09 -4.37961e-09 0.0
-1.85122e-08 -3.05274e-08 0.0
5.80309e-10 -6.4449e-10 0.0
-1.05909e-08 -1.31488e-08 0.0
-6.91391e-09 -1.36274e-08 0.0
-8.00442e-10 4.84939e-09 0.0
-1.50553e-09 1.35013e-09 0.0
-4.49933e-10 1.92375e-09 0.0
-3.63342e-09 8.83698e-09 0.0
-9.90255e-10 3.86943e-09 0.0
-4.0863e-09 4.39025e-09 0.0
-3.0124e-09 3.8571e-09 0.0
-1.49671e-08 1.6237e-09 0.0
-2.87603e-09 8.77154e-10 0.0
-9.6201e-09 -7.6851e-10 0.0
-4.4035e-09 -1.06751e-10 0.0
-9.73177e-09 -6.90489e-10 0.0
-4.87681e-09 -1.19125e-09 0.0
-1.34977e-08 -1.363e-09 0.0
-2.65282e-09 -1.68275e-11 0.0
-2.08028e-08 -6.57332e-10 0.0
-6.23929e-09 1.28192e-09 0.0
-7.28511e-09 5.38862e-10 0.0
-7.32241e-09 8.2442e-10 0.0
-1.27273e-08 4.17923e-10 0.0
-5.68061e-09 2.45175e-10 0.0
-9.04828e-09 3.11942e-10 0.0
VECTORS omega float
-0.00239003 -0.0118176 0.0355969
-0.0111162 0.0314166 -0.0443115
0.000557836 0.00292881 -0.00760699
0.0140734 -0.0319665 0.00870618
0.000337793 0.0122864 0.0159923
0.0168096 0.0286272 0.0277649
-0.00772041 -0.0180158 0.009656
-0.00825926 -0.00242182 0.0191923
0.0215718 -0.00119005 0.0182964
-0.00237849 0.0209567 0.0069643
-0.000570024 -0.0191438 0.0106806
-0.00639386 0.0182676 0.00527406
0.0162535 -0.0228609 0.0405037
-0.00309637 0.0166206 0.0148675
-0.000877472 -0.0118678 0.0102227
0.00213739 0.0099938 0.084111
0.0033139 0.0109473 -0.021564
0.000761758 -0.0211395 -0.0153951
0.0270685 -0.0684287 0.07895
-0.00256775 0.0198881 0.00756777
0.0194249 -0.00424225 0.0375629
-0.00615531 0.00445094 0.0179294
-0.00304618 -0.0252977 0.0141287
-0.0026996 0.0199114 0.0208727
0.018817 -0.0035009 0.0138347
-0.00580159 -0.0213866 0.00895555
0.000859046 0.00337752 -0.00153628
-0.00339134 0.0257304 0.0250356
-0.0187349 -0.0114899 0.0559747
0.0180494 -0.012855 -0.00723665
-0.0074717 -0.0020181 0.0265249
0.00222151 0.00500249 0.0219363
-0.00443265 0.00589181 0.101649
0.0080104 -0.00395819 -0.0316989
0.00570858 -0.0103107 0.0941645
-0.00359964 0.00280484 0.00330881
0.000639948 -0.000458006 0.00436197
0.00672116 -0.0338479 0.133345
-0.00154513 0.00180933 0.106722
0.000256332 -0.00180166 0.0014478
0.00928507 0.0163388 0.107007
-0.019216 -0.000451877 -0.0156338
0.0330543 0.0484462 0.0366987
-0.0366464 0.00345058 0.0368524
0.0146087 -0.0567176 0.00928696
0.00365414 0.00105787 0.015025
-0.0201584 0.0464051 0.0621667
0.00538227 -0.000735263 0.000418546
0.0367396 -0.149642 0.0928976
-0.0243355 0.00594007 0.0238324
0.103762 0.0402552 -0.0169271
-0.0292499 0.0401952 0.0408989
0.00669147 -0.0789012 0.0312355
-0.0771718 0.0108147 -0.0105624
0.0301711 0.0708057 0.0130946
0.0626392 -0.0120247 0.0259229
-0.000737537 -0.0526195 0.000763077
-0.0176594 0.0305572 0.00118293
-0.0315765 0.0649905 -0.0172769
0.0410325 -0.0254227 0.015021
-0.00718978 -0.0612608 0.0119932
-0.020121 0.0246235 -0.00510343
-0.0170841 0.065315 0.0275164
0.043356 -0.0195024 0.000976634
0.00599281 -0.0748995 0.0434299
0.00891675 0.0182322 -0.00316453
0.00930658 -0.0529457 0.0708781
-0.0209119 0.00323962 0.0119396
0.0219926 0.00251697 0.0455133
-0.0214636 -0.006495 0.0162152
0.0005966 -0.00606768 -0.00646581
-0.00165302 0.00715276 0.0450198
0.0107031 0.00499355 0.0666415
-0.0153398 -0.00499263 -0.0454746