# vtk DataFile Version 2.0
Generated by lpp.py
ASCII
DATASET POLYDATA
POINTS 400 float
0.0013265 0.00044393 3.36586e-05
0.000911929 0.00128536 -1.66342e-05
0.000242828 0.000443331 -3.64628e-05
0.00183463 0.00127843 5.09221e-06
0.0022682 0.000435757 -1.24497e-05
0.00274083 0.00128784 4.63423e-05
0.00324713 0.000515753 4.67087e-05
0.00374482 0.00129147 -1.5404e-05
0.00460607 0.00119548 -2.0603e-05
0.00417336 0.000417296 3.04549e-05
0.00511675 0.000469702 4.04467e-05
0.0056702 0.00130818 -2.65834e-05
0.0066422 0.00128918 -2.02466e-06
0.00602234 0.00041865 -1.20537e-05
0.00693186 0.000445002 3.91278e-05
0.00824459 0.00117605 -1.82355e-06
0.00779489 0.000364577 3.24564e-05
0.00876687 0.000398055 -3.28708e-05
0.00930393 0.0013855 3.24568e-05
0.00975777 0.000490902 -2.76781e-05
0.0103874 0.00131198 -4.92787e-05
0.0113793 0.00139186 -4.32784e-06
0.0107656 0.000443901 -3.96086e-06
0.0117805 0.00048536 -1.32742e-05
0.0124071 0.00132914 1.95463e-05
0.0127818 0.000442435 1.3181e-05
0.0134347 0.00122587 3.75182e-05
0.0136143 0.000329664 1.89547e-05
0.0143535 0.00161933 1.99029e-05
0.0143654 0.000726997 -4.71808e-05
0.015648 0.0012853 1.72248e-05
0.0152281 0.000426667 3.7231e-06
0.0165505 0.00131642 3.54547e-05
0.0161584 0.000503467 -4.85386e-05
0.017796 0.00133118 -3.92382e-05
0.0171615 0.000538559 -3.8784e-05
0.0182413 0.000486027 3.096e-05
0.0199981 0.00131724 4.93031e-05
0.0189199 0.00128032 6.72355e-06
0.0192497 0.000430543 -3.72737e-05
0.000908619 0.00230625 5.14548e-06
0.000384041 0.00315886 -4.9345e-05
0.002068 0.00294742 -3.17454e-05
0.00232377 0.00211996 -1.41959e-06
0.00292534 0.00285072 3.50109e-05
0.00325649 0.00201928 -3.46654e-05
0.00386617 0.00297748 -3.02218e-05
0.0041287 0.00209046 3.70504e-05
0.00498359 0.00300221 3.07542e-05
0.00497608 0.0019605 -2.23732e-05
0.00564494 0.00243815 -2.11247e-06
0.00623609 0.00307362 -3.67063e-05
0.00642348 0.00213325 3.11799e-05
0.00698996 0.00270986 -2.75116e-05
0.00731729 0.00191067 4.80419e-05
0.0077265 0.00291302 1.77683e-05
0.00828615 0.0021988 -3.97226e-05
0.00876436 0.00311897 4.55657e-05
0.00924713 0.00230705 1.80717e-05
0.00980392 0.00312827 -3.93388e-05
0.0101357 0.00222373 2.40231e-05
0.0107379 0.00309833 2.716e-05
0.011096 0.00228196 -4.78087e-05
0.0116589 0.00309664 -4.25165e-05
0.0120588 0.0022264 -4.01526e-05
0.0126263 0.00312611 2.94528e-05
0.0131069 0.00223001 4.21294e-05
0.0136541 0.00314443 2.4953e-06
0.0141672 0.00242042 2.35941e-05
0.014631 0.00314171 -2.89305e-05
0.0150812 0.00224345 3.21045e-05
0.0156158 0.00308758 2.08022e-05
0.0160052 0.00209139 1.69816e-05
0.0165032 0.00284338 -1.31875e-05
0.0169277 0.00207823 -2.13541e-05
0.0173575 0.00302243 -2.48084e-05
0.0178637 0.00224463 7.17441e-06
0.0184432 0.0030294 -3.11061e-05
0.0188615 0.0022094 -6.697e-06
0.0194333 0.0030394 1.88296e-05
0.019852 0.00217846 2.40593e-05
0.00131886 0.00346645 4.11056e-07
0.00154308 0.00438043 -3.43082e-05
0.000519798 0.00405531 4.11872e-05
0.000794374 0.00499986 1.15215e-05
0.00225436 0.00383337 4.14547e-05
0.00262843 0.00468334 2.79416e-05
0.00313802 0.00368824 -1.57031e-06
0.00360065 0.00470035 5.32063e-06
0.00402038 0.00391638 -2.6529e-06
0.00458669 0.00494696 -3.58607e-05
0.00499696 0.00397222 -2.13321e-05
0.0056627 0.00479156 -4.97251e-05
0.00597253 0.00390425 -2.41619e-05
0.00667633 0.00459882 -2.57589e-05
0.00702098 0.00365623 -4.22335e-05
0.00774564 0.00462602 4.30556e-05
0.00795841 0.00368262 4.42331e-05
0.00877504 0.00406001 -4.39636e-05
0.00979848 0.00487055 4.93343e-05
0.00960681 0.00400092 4.05756e-05
0.00870788 0.00490715 -1.72291e-05
0.0104217 0.0038797 -3.72271e-05
0.0107703 0.00466994 4.50596e-05
0.0112809 0.00394248 1.35023e-05
0.0119355 0.0047571 3.81834e-05
0.0121407 0.00389464 3.14585e-06
0.0129051 0.00492966 -2.4127e-05
0.0131305 0.00399572 1.0814e-05
0.0137653 0.00483806 -4.51984e-05
0.0141869 0.00402786 1.00341e-06
0.0147098 0.00489076 6.87793e-06
0.0151556 0.00395804 1.87838e-05
0.0160814 0.00415506 4.33922e-05
0.0167789 0.00468952 2.18197e-05
0.0170306 0.00386869 -2.12721e-05
0.0176626 0.00460894 6.56493e-06
0.0179627 0.00377782 9.36883e-06
0.0186975 0.00453907 3.03201e-05
0.019409 0.00392577 1.43967e-05
0.0197529 0.00478976 -2.66714e-05
0.00119911 0.00595079 1.46596e-05
0.000326981 0.00650304 -3.99128e-05
8.76183e-05 0.00571662 -3.26099e-05
0.00181508 0.00521801 -7.07934e-06
0.00213496 0.00645928 -2.06108e-05
0.00263254 0.00563274 3.54227e-05
0.00313044 0.0064113 -2.96496e-05
0.00358577 0.00562868 1.90715e-05
0.00444527 0.00591237 1.72497e-05
0.00535894 0.0057612 2.50127e-05
0.00595339 0.0065021 -4.27825e-05
0.00629431 0.00553441 2.43943e-05
0.00679686 0.00637463 -3.07296e-05
0.00720497 0.00549547 -2.4969e-05
0.00770444 0.00633538 1.47771e-05
0.00817812 0.00555956 -2.62417e-05
0.00863952 0.00633135 -3.20614e-05
0.00925777 0.00565947 -4.70071e-05
0.0101167 0.00574716 4.476e-05
0.010931 0.00555221 -5.06646e-06
0.0113865 0.0065119 -4.22073e-05
0.0117587 0.00566771 2.60985e-05
0.0123371 0.00640573 1.83575e-05
0.0125216 0.00559892 -2.28987e-05
0.0132179 0.0060939 2.90979e-05
0.0141577 0.00577189 4.28851e-05
0.0151807 0.00589393 -1.46308e-05
0.0156802 0.00502173 -7.56683e-06
0.0160583 0.00623917 -4.83823e-05
0.0165178 0.00551938 2.89194e-05
0.0169903 0.00632271 3.21564e-05
0.01732 0.00537655 -4.85919e-05
0.0180787 0.0062826 -1.12464e-05
0.0181443 0.00535605 3.12852e-05
0.0192941 0.00636065 2.46256e-05
0.0190596 0.00549148 -4.44854e-05
0.00127239 0.00681455 -2.73404e-05
0.00114949 0.00795929 -3.38667e-05
0.000608301 0.00726007 -4.2113e-05
0.00011784 0.00807626 1.49646e-05
0.00191116 0.00742567 7.74856e-06
0.00206365 0.00829883 5.5329e-07
0.00284206 0.00725631 3.67542e-05
0.00293645 0.00820002 1.2865e-05
0.00375463 0.00772305 -4.70278e-05
0.00400545 0.00673766 -1.13161e-05
0.00472926 0.00768257 1.72877e-05
0.00506113 0.00677407 -4.33679e-05
0.00569544 0.00765947 7.98975e-06
0.00647157 0.00722425 -4.89198e-05
0.00704879 0.00808607 -1.8846e-05
0.00736842 0.00719528 -2.80691e-05
0.00793075 0.00787543 -4.34141e-05
0.00824858 0.00712261 2.59556e-05
0.00885145 0.00784643 -3.81694e-05
0.0094218 0.00692244 -2.37608e-06
0.0098416 0.00782714 -1.57412e-05
0.0104115 0.00667653 -1.47472e-05
0.0107504 0.0082352 4.979e-05
0.0110323 0.00735975 2.22644e-05
0.0117293 0.00821082 -4.55597e-05
0.0120444 0.00730135 -4.5975e-05
0.0128629 0.00785278 4.23607e-05
0.0130265 0.00699335 4.20701e-05
0.0138563 0.00781655 -5.04024e-06
0.0139102 0.00679966 1.64328e-05
0.0148596 0.00792253 -1.6913e-05
0.0149136 0.0069122 -4.21217e-05
0.0158282 0.00811095 -3.94419e-05
0.0159215 0.00713283 -1.21974e-05
0.0166899 0.00770126 -3.70828e-05
0.0174948 0.00715085 -3.33274e-05
0.0181623 0.00805589 -3.83096e-05
0.0185114 0.00717476 -2.02095e-05
0.0191834 0.00778176 -4.84051e-05
0.0197632 0.00712989 -3.46879e-05
0.00160717 0.00915025 2.66777e-05
0.000810435 0.00875843 -3.96098e-06
0.000740746 0.00962904 -1.72888e-05
0.00232738 0.00997638 2.41907e-05
0.00258974 0.00906499 4.87165e-05
0.00323831 0.00972712 7.50784e-06
0.00348615 0.00889122 -7.08428e-06
0.00420011 0.00954441 6.12283e-06
0.00436572 0.00858031 1.74262e-06
0.00517578 0.00943768 -2.81666e-05
0.00536152 0.00853097 -1.04316e-05
0.00612279 0.00937698 9.49774e-06
0.00624176 0.00848877 -4.45245e-05
0.00695368 0.00902681 3.54547e-06
0.00741562 0.00987017 -2.7703e-05
0.00779799 0.00871438 -4.92713e-05
0.00821226 0.00951203 1.26179e-05
0.00871743 0.0087896 4.93873e-05
0.00911174 0.00970333 -4.18982e-05
0.00972818 0.00886027 -9.33208e-06
0.0106806 0.00928948 -3.72943e-05
0.0113862 0.00989367 1.32074e-05
0.011624 0.00908029 3.24679e-05
0.0123102 0.00976079 -1.82378e-05
0.0125621 0.00876159 4.17083e-05
0.0132271 0.00962547 2.0062e-05
0.0135634 0.00880496 -3.30909e-05
0.0140492 0.00959947 -4.57402e-05
0.0145529 0.00882816 -3.07794e-05
0.0149258 0.00967048 4.85236e-05
0.0155023 0.00898107 -3.2558e-05
0.0158197 0.00994016 -4.73944e-05
0.0164742 0.00883754 -2.5672e-05
0.0167121 0.00969314 -3.5681e-05
0.0173291 0.00835098 2.81917e-06
0.017435 0.00923197 -4.5525e-06
0.0183303 0.00993146 1.70983e-05
0.0199653 0.00908487 -3.41589e-05
0.0183519 0.00898667 -3.29151e-05
0.0191584 0.00955472 4.46827e-05
0.0191577 0.00861108 -3.50995e-05
0.00162132 0.0115948 -2.75196e-05
0.00143492 0.0100977 -3.628e-05
0.00101795 0.0108599 -3.81409e-05
0.000110791 0.0110251 4.26166e-05
0.00192801 0.0107565 2.8646e-05
0.00256697 0.0113924 1.79805e-07
0.00298432 0.0105897 -3.0738e-05
0.00354152 0.0113159 1.32908e-05
0.00388027 0.0104448 3.19371e-06
0.00450495 0.0112757 -4.05009e-05
0.00489919 0.0103852 2.58338e-05
0.00544522 0.0112337 5.57899e-06
0.00581653 0.010225 3.55182e-05
0.00634867 0.0110321 -2.60959e-05
0.00663147 0.010198 1.90003e-05
0.00727961 0.0108292 2.40728e-05
0.0080628 0.0115378 -1.09524e-05
0.00823799 0.0105085 -2.41459e-05
0.00922087 0.0106621 1.14157e-05
0.0090114 0.0115588 -2.28614e-05
0.00998432 0.0100987 7.96265e-06
0.0100688 0.0110615 4.36203e-05
0.0107868 0.0104743 4.40746e-05
0.0109887 0.0113637 4.26806e-05
0.0117326 0.0107239 1.59016e-05
0.0126636 0.0106157 -4.05226e-06
0.0131395 0.0112625 -3.49974e-05
0.0135898 0.0104323 -2.12959e-05
0.0139534 0.0112398 -3.47829e-05
0.0145056 0.0103613 -6.10015e-06
0.014865 0.0112148 -4.9699e-05
0.0158283 0.0110014 -3.49785e-05
0.0166017 0.0105625 -3.04875e-05
0.0166436 0.0115683 2.14731e-05
0.0173362 0.0110701 4.23831e-06
0.0174714 0.0102046 1.54215e-05
0.0183115 0.0109068 -4.02054e-05
0.0190958 0.01043 -1.5365e-05
0.0192312 0.01131 -1.60515e-05
0.0199515 0.0101228 -4.17269e-05
0.00140769 0.012654 1.39627e-05
0.000702327 0.0118008 -9.96495e-06
0.000467534 0.01273 2.195e-05
0.00228073 0.0123216 1.50647e-05
0.00296164 0.0130597 -2.83946e-05
0.00320549 0.012145 2.84116e-05
0.00405963 0.012944 -8.8818e-06
0.00408457 0.0120336 -1.71454e-05
0.00496109 0.0130887 4.3363e-05
0.00505777 0.0121533 3.19528e-05
0.00580996 0.0129017 -3.24457e-07
0.00607981 0.0119608 1.74786e-05
0.00667047 0.0126465 -2.9504e-05
0.00709331 0.0117948 2.61725e-05
0.00758283 0.0126998 -7.28073e-06
0.00856745 0.0124189 2.21972e-05
0.00930783 0.0130107 3.4178e-05
0.00983406 0.0119907 -3.43726e-05
0.0101498 0.0129272 2.4284e-05
0.0107715 0.012297 4.99362e-05
0.0111685 0.0131382 1.79808e-05
0.0119256 0.0117308 3.01021e-05
0.0120853 0.0128008 -4.81269e-05
0.0128352 0.0119912 3.49515e-06
0.0131376 0.0128312 8.09002e-06
0.0137847 0.0121018 -1.27408e-05
0.014276 0.0129712 1.51186e-05
0.0147434 0.012196 -2.52694e-05
0.0154842 0.012798 -2.24734e-05
0.0156048 0.0118901 -4.84058e-07
0.0163405 0.0124315 2.73575e-05
0.0171551 0.0123297 2.6071e-05
0.0172498 0.0131971 -3.7354e-05
0.017906 0.0118429 -4.54593e-05
0.01798 0.0127927 -4.8395e-05
0.0187208 0.0130942 7.82155e-06
0.0188694 0.0121959 -1.47463e-05
0.0195615 0.0129237 -3.72359e-05
0.0198067 0.01205 -4.13942e-05
0.00112289 0.0135727 -4.1589e-05
0.000970459 0.0145443 -1.31753e-05
0.000190243 0.0136116 -1.17246e-06
0.00192 0.0145659 -5.27218e-06
0.00202808 0.013343 2.70269e-05
0.00268641 0.0140034 -4.69919e-05
0.00309226 0.0148444 2.49655e-05
0.00362463 0.0138003 2.96183e-05
0.00400044 0.0146147 1.43924e-05
0.00461459 0.0139049 -3.62044e-05
0.00522978 0.0145403 2.52958e-05
0.00555641 0.0137734 -4.96651e-05
0.00608621 0.0145263 -1.66336e-06
0.00646638 0.0136464 -6.05535e-06
0.00700777 0.0145725 -2.79437e-05
0.00745038 0.0137018 1.57621e-06
0.0080672 0.0145647 -3.93501e-06
0.00840119 0.0134473 4.44824e-05
0.00913644 0.014048 4.05064e-05
0.00978082 0.0147254 -8.94147e-06
0.00897133 0.0149821 -1.15952e-07
0.0100999 0.0138502 -3.1985e-05
0.0106213 0.0146532 2.67646e-06
0.0110342 0.013956 8.79731e-06
0.0115055 0.0146906 -1.90989e-05
0.0118256 0.0137572 1.18363e-05
0.0123424 0.0144655 -1.70971e-05
0.012708 0.0136426 2.04004e-05
0.0132674 0.0143817 -4.99115e-05
0.0136594 0.0135852 4.34762e-05
0.014205 0.0146395 2.36495e-05
0.0145047 0.0138164 1.50053e-05
0.0151516 0.0145936 -1.68329e-05
0.0153864 0.013695 2.59986e-05
0.0161606 0.0144173 -4.8797e-05
0.0162962 0.0133868 -2.94781e-05
0.0171706 0.0141678 -3.80464e-05
0.0180254 0.0146261 6.36771e-07
0.0180846 0.0136986 -4.54767e-05
0.0199683 0.0145336 -2.39016e-05
0.0189603 0.0145419 -3.38088e-05
0.0192876 0.013738 6.46138e-06
0.00145846 0.015398 3.1619e-05
0.00105315 0.0162516 -3.75421e-05
0.000536232 0.0153938 1.65265e-05
0.000164731 0.0162431 3.22872e-05
0.00200791 0.0162626 -2.29225e-05
0.00238515 0.0154158 -4.48401e-05
0.00303478 0.0161905 -1.88293e-05
0.00376752 0.0155208 5.22691e-06
0.00401589 0.0163414 -2.84806e-06
0.00466777 0.0152445 3.75063e-05
0.00493771 0.0161969 -2.57249e-06
0.00560149 0.015335 -3.31627e-05
0.00595896 0.0162179 4.29286e-05
0.0065822 0.0154127 3.83299e-05
0.0069475 0.0162874 8.05502e-06
0.00750308 0.0153696 -1.60873e-07
0.00782641 0.0162826 4.44584e-05
0.00841673 0.0156744 1.77529e-05
0.00922232 0.0160937 1.78253e-05
0.00996187 0.015548 1.34032e-05
0.0100488 0.0163672 -1.78006e-05
0.0108031 0.0163489 3.69213e-05
0.0109665 0.0154958 -2.36735e-05
0.0116589 0.0162677 -3.81553e-05
0.0120484 0.0154056 -3.46021e-05
0.012657 0.0162178 4.68532e-05
0.0130758 0.015317 -4.47667e-06
0.0136493 0.0163157 -3.82493e-05
0.0140314 0.0155213 4.44816e-05
0.0145653 0.016297 2.60965e-05
0.0149472 0.015479 -1.42244e-05
0.0154836 0.0162595 -2.63927e-05
0.0158829 0.0153997 1.45032e-05
0.0163632 0.0162682 1.42827e-05
0.0169042 0.0152249 8.61202e-06
0.0172838 0.0162315 1.04172e-05
0.0178164 0.0154405 -1.6534e-05
0.0182879 0.0162461 1.14277e-05
0.0186876 0.0153946 3.47044e-05
0.0192625 0.0162476 4.63278e-05
0.0196165 0.0154169 -1.23126e-05
VERTICES 400 800
1 0
1 1
1 2
1 3
1 4
1 5
1 6
1 7
1 8
1 9
1 10
1 11
1 12
1 13
1 14
1 15
1 16
1 17
1 18
1 19
1 20
1 21
1 22
1 23
1 24
1 25
1 26
1 27
1 28
1 29
1 30
1 31
1 32
1 33
1 34
1 35
1 36
1 37
1 38
1 39
1 40
1 41
1 42
1 43
1 44
1 45
1 46
1 47
1 48
1 49
1 50
1 51
1 52
1 53
1 54
1 55
1 56
1 57
1 58
1 59
1 60
1 61
1 62
1 63
1 64
1 65
1 66
1 67
1 68
1 69
1 70
1 71
1 72
1 73
1 74
1 75
1 76
1 77
1 78
1 79
1 80
1 81
1 82
1 83
1 84
1 85
1 86
1 87
1 88
1 89
1 90
1 91
1 92
1 93
1 94
1 95
1 96
1 97
1 98
1 99
1 100
1 101
1 102
1 103
1 104
1 105
1 106
1 107
1 108
1 109
1 110
1 111
1 112
1 113
1 114
1 115
1 116
1 117
1 118
1 119
1 120
1 121
1 122
1 123
1 124
1 125
1 126
1 127
1 128
1 129
1 130
1 131
1 132
1 133
1 134
1 135
1 136
1 137
1 138
1 139
1 140
1 141
1 142
1 143
1 144
1 145
1 146
1 147
1 148
1 149
1 150
1 151
1 152
1 153
1 154
1 155
1 156
1 157
1 158
1 159
1 160
1 161
1 162
1 163
1 164
1 165
1 166
1 167
1 168
1 169
1 170
1 171
1 172
1 173
1 174
1 175
1 176
1 177
1 178
1 179
1 180
1 181
1 182
1 183
1 184
1 185
1 186
1 187
1 188
1 189
1 190
1 191
1 192
1 193
1 194
1 195
1 196
1 197
1 198
1 199
1 200
1 201
1 202
1 203
1 204
1 205
1 206
1 207
1 208
1 209
1 210
1 211
1 212
1 213
1 214
1 215
1 216
1 217
1 218
1 219
1 220
1 221
1 222
1 223
1 224
1 225
1 226
1 227
1 228
1 229
1 230
1 231
1 232
1 233
1 234
1 235
1 236
1 237
1 238
1 239
1 240
1 241
1 242
1 243
1 244
1 245
1 246
1 247
1 248
1 249
1 250
1 251
1 252
1 253
1 254
1 255
1 256
1 257
1 258
1 259
1 260
1 261
1 262
1 263
1 264
1 265
1 266
1 267
1 268
1 269
1 270
1 271
1 272
1 273
1 274
1 275
1 276
1 277
1 278
1 279
1 280
1 281
1 282
1 283
1 284
1 285
1 286
1 287
1 288
1 289
1 290
1 291
1 292
1 293
1 294
1 295
1 296
1 297
1 298
1 299
1 300
1 301
1 302
1 303
1 304
1 305
1 306
1 307
1 308
1 309
1 310
1 311
1 312
1 313
1 314
1 315
1 316
1 317
1 318
1 319
1 320
1 321
1 322
1 323
1 324
1 325
1 326
1 327
1 328
1 329
1 330
1 331
1 332
1 333
1 334
1 335
1 336
1 337
1 338
1 339
1 340
1 341
1 342
1 343
1 344
1 345
1 346
1 347
1 348
1 349
1 350
1 351
1 352
1 353
1 354
1 355
1 356
1 357
1 358
1 359
1 360
1 361
1 362
1 363
1 364
1 365
1 366
1 367
1 368
1 369
1 370
1 371
1 372
1 373
1 374
1 375
1 376
1 377
1 378
1 379
1 380
1 381
1 382
1 383
1 384
1 385
1 386
1 387
1 388
1 389
1 390
1 391
1 392
1 393
1 394
1 395
1 396
1 397
1 398
1 399
POINT_DATA 400
VECTORS f float
-6.04167e-09 1.42518e-09 0.0
-1.19754e-08 1.11169e-08 0.0
5.50525e-09 7.99249e-10 0.0
-9.28902e-09 8.45571e-10 0.0
-4.70092e-09 2.09814e-09 0.0
-7.61318e-09 3.60127e-09 0.0
-5.63464e-09 2.35112e-09 0.0
-8.9775e-09 3.92504e-09 0.0
-5.89032e-09 1.12998e-09 0.0
-4.43254e-09 9.95738e-10 0.0
-4.65216e-09 1.16589e-09 0.0
-1.34386e-08 1.58429e-09 0.0
-1.3103e-08 1.44488e-09 0.0
-3.4813e-09 8.26466e-10 0.0
-2.04326e-09 2.55371e-09 0.0
-1.4415e-08 -6.6896e-09 0.0
9.64131e-10 -2.26478e-09 0.0
2.03594e-09 9.51328e-10 0.0
-1.64319e-08 -1.25907e-08 0.0
-3.05348e-09 -5.09229e-09 0.0
-1.46416e-08 -8.11633e-09 0.0
-1.6179e-08 -2.38872e-09 0.0
-3.67403e-09 -2.57937e-09 0.0
-8.74244e-09 -1.40344e-10 0.0
-1.63608e-08 3.69747e-09 0.0
-6.56793e-09 1.0629e-09 0.0
-1.91723e-08 2.94071e-09 0.0
-5.00267e-09 1.32504e-09 0.0
-2.16935e-08 4.44293e-09 0.0
-1.53035e-08 9.06414e-10 0.0
-2.51943e-08 1.44523e-09 0.0
-1.3885e-08 2.11945e-09 0.0
-1.09287e-08 -2.45404e-09 0.0
-1.17109e-08 5.52651e-09 0.0
-1.85629e-08 7.52585e-10 0.0
-9.54562e-09 -3.67916e-09 0.0
-4.7256e-09 2.37638e-09 0.0
-1.4491e-08 -3.59955e-09 0.0
-1.92784e-08 2.47953e-09 0.0
-3.54696e-10 4.25183e-09 0.0
-3.50977e-08 1.31551e-08 0.0
-3.65544e-08 2.26934e-10 0.0
-1.92435e-08 5.3962e-10 0.0
-1.70905e-08 2.46938e-09 0.0
-1.40668e-08 2.50506e-09 0.0
-1.18002e-08 6.51567e-09 0.0
-2.42578e-08 1.18579e-08 0.0
-1.25087e-08 6.3863e-09 0.0
-2.47933e-08 4.09427e-09 0.0
-1.39847e-08 1.88596e-09 0.0
-1.60662e-08 3.24504e-09 0.0
-2.55723e-08 1.46892e-09 0.0
-1.9233e-08 1.42956e-09 0.0
-1.51982e-08 3.03486e-10 0.0
-2.24544e-08 1.0177e-09 0.0
-1.76029e-08 -2.99004e-09 0.0
-4.43678e-08 -9.4287e-09 0.0
-3.24522e-08 -1.11744e-08 0.0
-2.22854e-08 -9.33109e-09 0.0
-3.8031e-08 -1.45742e-08 0.0
-2.55322e-08 -1.11509e-08 0.0
-2.72592e-08 -6.49281e-09 0.0
-2.48523e-08 -5.92197e-09 0.0
-3.791e-08 -3.16087e-09 0.0
-2.27165e-08 2.5301e-09 0.0
-4.19989e-08 7.43059e-10 0.0
-3.64621e-08 1.96454e-09 0.0
-4.41957e-08 4.04524e-09 0.0
-2.51108e-08 2.31719e-09 0.0
-4.01345e-08 5.15905e-09 0.0
-3.63474e-08 8.52287e-09 0.0
-4.96983e-08 7.90945e-09 0.0
-3.03042e-08 3.8814e-09 0.0
-3.49748e-08 2.78865e-09 0.0
-2.81676e-08 2.11414e-09 0.0
-3.5019e-08 1.80193e-09 0.0
-4.73612e-08 3.68927e-09 0.0
-3.84068e-08 1.76215e-09 0.0
-4.22574e-08 1.22379e-09 0.0
-5.24302e-08 9.40618e-10 0.0
-4.6508e-08 -5.51545e-09 0.0
-4.39368e-08 -3.19732e-09 0.0
-2.55633e-08 -6.56044e-10 0.0
-2.89381e-08 -1.45419e-09 0.0
-5.37703e-08 -3.17205e-09 0.0
-2.72556e-08 6.27045e-10 0.0
-2.76236e-08 7.5223e-10 0.0
-2.17399e-08 4.38203e-09 0.0
-2.34653e-08 1.01017e-08 0.0
-2.92289e-08 1.08597e-08 0.0
-3.99568e-08 8.99629e-09 0.0
-3.65514e-08 7.69307e-09 0.0
-3.71232e-08 1.60782e-09 0.0
-2.14327e-08 6.60884e-10 0.0
-3.26145e-08 -6.69225e-09 0.0
-2.68323e-08 -5.27853e-09 0.0
-3.99813e-08 -1.54074e-08 0.0
-2.2539e-08 -6.23227e-09 0.0
-2.74719e-08 -8.84287e-09 0.0
-2.87786e-08 -8.76259e-09 0.0
-2.35728e-08 -8.56677e-09 0.0
-2.31653e-08 -8.52203e-09 0.0
-2.24749e-08 -5.00596e-09 0.0
-2.75364e-08 -3.96496e-09 0.0
-2.46896e-08 -4.42379e-09 0.0
-3.5695e-08 4.00125e-09 0.0
-2.54794e-08 1.46739e-09 0.0
-3.86816e-08 3.15134e-09 0.0
-5.58638e-08 3.9315e-09 0.0
-3.12714e-08 3.01554e-09 0.0
-5.11781e-08 5.57909e-09 0.0
-4.62185e-08 4.7557e-09 0.0
-4.62949e-08 5.8483e-09 0.0
-4.18718e-08 3.51987e-09 0.0
-3.17805e-08 1.6754e-09 0.0
-4.14725e-08 1.96208e-09 0.0
-3.16594e-08 1.29257e-09 0.0
-4.55389e-08 2.07835e-09 0.0
-6.19503e-08 1.3934e-09 0.0
-3.07211e-08 4.44653e-10 0.0
-4.76723e-08 -6.59987e-10 0.0
-3.92029e-08 -2.62495e-09 0.0
-2.54455e-08 -7.55145e-10 0.0
-3.64824e-08 -2.3607e-09 0.0
-3.34131e-08 -3.79748e-10 0.0
-5.12365e-08 -3.63393e-09 0.0
-3.29398e-08 6.06557e-11 0.0
-3.02528e-08 5.27135e-10 0.0
-3.75075e-08 1.21968e-08 0.0
-2.22187e-08 6.09806e-09 0.0
-4.05612e-08 -3.91866e-09 0.0
-2.4025e-08 -5.46766e-09 0.0
-1.78264e-08 -3.93767e-09 0.0
-3.42104e-08 -1.3318e-08 0.0
-3.13096e-08 -1.35701e-08 0.0
-3.7216e-08 -1.43436e-08 0.0
-2.56596e-08 -9.66592e-09 0.0
-3.70074e-08 -1.24668e-08 0.0
-2.9236e-08 -8.98094e-09 0.0
-2.70663e-08 -4.26787e-09 0.0
-2.77842e-08 -1.77277e-09 0.0
-4.03737e-08 1.67073e-09 0.0
-3.0169e-08 2.37501e-09 0.0
-3.68664e-08 3.28895e-09 0.0
-2.10913e-08 2.51918e-09 0.0
-3.74209e-08 5.66893e-09 0.0
-6.08914e-08 7.85007e-09 0.0
-5.07688e-08 2.82021e-09 0.0
-4.04238e-08 3.67154e-09 0.0
-4.0774e-08 1.37577e-09 0.0
-3.99565e-08 2.12974e-09 0.0
-2.77821e-08 -9.15262e-11 0.0
-2.70219e-08 1.28161e-09 0.0
-5.82882e-08 -9.1011e-10 0.0
-3.93586e-08 4.91e-10 0.0
-4.18547e-08 4.39528e-10 0.0
-3.9399e-08 2.45742e-10 0.0
-3.10107e-08 -2.86011e-09 0.0
-6.02569e-08 -5.09892e-09 0.0
-3.19339e-08 -1.88693e-09 0.0
-6.54781e-08 -4.18998e-09 0.0
-4.77598e-08 -4.8714e-09 0.0
-3.96883e-08 -3.81426e-09 0.0
-5.96156e-08 -1.54586e-09 0.0
-4.62495e-08 -3.05572e-09 0.0
-5.85445e-08 -6.05195e-09 0.0
-4.47092e-08 8.69409e-09 0.0
-5.023e-08 -1.38009e-08 0.0
-6.16384e-08 -1.76797e-08 0.0
-5.30212e-08 -1.62907e-08 0.0
-3.94002e-08 -1.3838e-08 0.0
-6.00915e-08 -2.55787e-08 0.0
-3.44332e-08 -1.35026e-08 0.0
-2.65711e-08 -8.37183e-09 0.0
-2.97709e-08 -9.07701e-09 0.0
-5.52992e-08 -1.18231e-08 0.0
-5.23626e-08 -1.10095e-08 0.0
-5.15012e-08 -5.27129e-09 0.0
-4.88064e-08 -5.35719e-10 0.0
-6.78307e-08 -3.98236e-09 0.0
-1.84556e-08 7.00091e-10 0.0
-5.26161e-08 -1.02287e-09 0.0
-5.13221e-08 1.94338e-09 0.0
-3.87051e-08 2.41383e-09 0.0
-3.12599e-08 3.42668e-09 0.0
-5.98481e-08 2.82631e-09 0.0
-4.09832e-08 4.2596e-09 0.0
-4.22357e-08 1.0234e-10 0.0
-6.39999e-08 2.65377e-09 0.0
-4.64436e-08 -1.5071e-09 0.0
-4.6715e-08 -1.86107e-10 0.0
-4.76033e-08 -1.68181e-09 0.0
-5.42308e-08 -1.82282e-09 0.0
-3.85263e-08 -2.25843e-09 0.0
-5.54847e-08 -1.48369e-09 0.0
-4.02429e-08 -1.74161e-09 0.0
-4.66535e-08 -2.18094e-09 0.0
-6.3354e-08 -5.33454e-09 0.0
-2.85223e-08 -2.13414e-09 0.0
-4.81639e-08 -3.82796e-09 0.0
-5.75688e-08 -6.14214e-09 0.0
-5.91613e-08 -6.08832e-09 0.0
-4.07062e-08 -6.16306e-09 0.0
-4.11875e-08 -6.6997e-09 0.0
-6.0784e-08 -1.56185e-08 0.0
-8.16184e-08 -2.06404e-08 0.0
-4.88356e-08 -1.61562e-08 0.0
-5.93169e-08 -1.90628e-08 0.0
-5.56752e-08 -2.27969e-08 0.0
-3.15454e-08 -1.31121e-08 0.0
-4.8906e-08 -1.96413e-08 0.0
-6.4236e-08 -2.58793e-08 0.0
-3.99165e-08 -1.35102e-08 0.0
-5.00604e-08 -1.42654e-08 0.0
-5.04607e-08 -1.01064e-08 0.0
-6.31022e-08 -5.36229e-09 0.0
-7.95081e-08 -6.5401e-09 0.0
-6.28666e-08 -3.19463e-09 0.0
-3.87042e-08 -1.13032e-09 0.0
-3.75829e-08 -9.10364e-10 0.0
-6.66057e-08 -1.25991e-09 0.0
-6.59441e-08 2.1801e-10 0.0
-2.64177e-08 -1.64807e-09 0.0
-5.02844e-08 -8.02559e-10 0.0
-2.97364e-08 -3.34143e-09 0.0
-4.64835e-08 -2.30289e-09 0.0
-3.14292e-08 -4.04001e-09 0.0
-4.03434e-08 -3.15929e-09 0.0
-4.91023e-08 -4.67359e-09 0.0
-4.0365e-08 -3.36712e-09 0.0
-2.6659e-08 -3.00194e-09 0.0
-3.3092e-08 -2.2807e-09 0.0
-4.12909e-08 -4.24295e-09 0.0
-4.17045e-08 -4.20124e-09 0.0
-6.55314e-08 -5.16478e-09 0.0
-4.87071e-08 -4.04476e-09 0.0
-4.41622e-08 -3.39698e-09 0.0
-3.51369e-08 -2.36561e-09 0.0
-4.76898e-08 -5.28734e-09 0.0
-3.83416e-08 -3.14499e-09 0.0
-3.97861e-08 -3.1985e-09 0.0
-3.72362e-08 -2.96854e-09 0.0
-3.20893e-08 -2.83416e-09 0.0
-5.58143e-08 -7.83662e-09 0.0
-3.886e-08 -5.84191e-09 0.0
-4.07004e-08 -8.96223e-09 0.0
-7.2721e-08 -1.69576e-08 0.0
-4.7362e-08 -1.48606e-08 0.0
-8.30073e-08 -2.78252e-08 0.0
-4.27184e-08 -1.72788e-08 0.0
-4.83504e-08 -1.93582e-08 0.0
-5.05851e-08 -2.15979e-08 0.0
-3.77388e-08 -1.49824e-08 0.0
-5.21512e-08 -2.32068e-08 0.0
-4.04007e-08 3.39002e-09 0.0
-7.17252e-08 -1.93346e-08 0.0
-5.6841e-08 -2.08719e-10 0.0
-4.34848e-08 5.14122e-09 0.0
-4.91005e-08 -3.15346e-10 0.0
-5.14193e-08 8.43225e-10 0.0
-3.99474e-08 -4.83201e-10 0.0
-5.10455e-08 3.55746e-11 0.0
-5.24799e-08 -2.42996e-09 0.0
-3.29056e-08 -2.89145e-09 0.0
-2.33631e-08 -5.64237e-09 0.0
-5.0138e-08 -8.2967e-09 0.0
-1.92455e-08 -6.43938e-09 0.0
-3.00485e-08 -6.48681e-09 0.0
-3.93355e-08 -1.34697e-08 0.0
-3.14829e-08 -8.27802e-09 0.0
-3.52738e-08 -5.40169e-09 0.0
-3.05872e-08 -6.99149e-09 0.0
-2.30335e-08 -4.15832e-09 0.0
-4.30404e-08 -6.28685e-09 0.0
-4.36282e-08 -3.30571e-09 0.0
-3.28085e-08 -2.77983e-09 0.0
-3.8498e-08 -3.2999e-09 0.0
-4.46547e-08 -3.52875e-09 0.0
-3.37131e-08 -3.83198e-09 0.0
-4.94523e-08 -4.62234e-09 0.0
-3.31053e-08 -3.28382e-09 0.0
-4.36335e-08 -5.58674e-09 0.0
-4.47734e-08 -9.7285e-09 0.0
-4.07073e-08 -8.68135e-09 0.0
-3.95046e-08 -1.28823e-08 0.0
-3.69492e-08 -1.01564e-08 0.0
-2.01604e-08 -8.70136e-09 0.0
-5.62686e-08 -2.35024e-08 0.0
-3.03156e-08 -1.66918e-08 0.0
-4.84685e-08 -2.34392e-08 0.0
-2.84236e-08 -1.44596e-08 0.0
-5.14046e-08 -2.06206e-08 0.0
-5.91854e-08 5.37538e-09 0.0
-4.52455e-08 1.76146e-08 0.0
-2.55059e-08 1.72662e-08 0.0
-4.07932e-08 7.0501e-10 0.0
-1.77221e-08 9.06149e-09 0.0
-5.36701e-08 -8.87486e-11 0.0
-1.38472e-08 1.42323e-10 0.0
-4.90084e-08 -8.78527e-09 0.0
-3.04776e-08 -1.56251e-08 0.0
-2.19345e-08 -8.58216e-09 0.0
-2.35152e-08 -1.57888e-08 0.0
-3.2464e-08 -1.5633e-08 0.0
-1.60733e-08 -9.82131e-09 0.0
-2.96697e-08 -1.27242e-08 0.0
-1.81475e-08 -5.75672e-09 0.0
-2.83108e-08 -9.47536e-09 0.0
-2.64538e-08 -8.09987e-09 0.0
-1.69264e-08 -3.70839e-09 0.0
-2.02385e-08 -5.17864e-09 0.0
-4.98109e-08 -6.27587e-09 0.0
-1.89139e-08 -3.38128e-09 0.0
-1.74008e-08 -1.86691e-09 0.0
-4.16764e-08 -3.30638e-09 0.0
-3.1187e-08 -1.94848e-09 0.0
-3.13549e-08 -2.19916e-09 0.0
-3.08974e-08 -4.63927e-09 0.0
-1.77602e-08 -3.09589e-09 0.0
-2.36617e-08 -2.29429e-09 0.0
-1.86438e-08 -1.25362e-09 0.0
-2.27304e-08 -2.00246e-09 0.0
-2.43458e-08 -4.25016e-09 0.0
-1.7416e-08 -4.91206e-09 0.0
-2.66029e-08 -9.25902e-09 0.0
-1.58491e-08 -6.06366e-09 0.0
-2.47237e-08 -1.0949e-08 0.0
-1.1303e-08 -6.16455e-09 0.0
-1.42897e-08 -1.05585e-08 0.0
-1.50339e-08 -7.69435e-09 0.0
-1.63248e-08 -1.08347e-08 0.0
-2.53769e-08 1.93034e-09 0.0
-4.49832e-09 2.08695e-08 0.0
1.05208e-08 2.52581e-08 0.0
-3.50317e-09 2.58548e-08 0.0
9.61827e-09 9.99819e-09 0.0
7.89143e-09 5.57098e-09 0.0
1.17276e-08 6.26481e-09 0.0
1.01741e-08 1.602e-08 0.0
6.40483e-09 4.20511e-09 0.0
2.1644e-09 2.6219e-09 0.0
6.56651e-09 5.92244e-09 0.0
-4.66125e-09 -8.72019e-09 0.0
-3.73797e-09 -1.13276e-08 0.0
-7.29822e-09 -1.10954e-08 0.0
-1.10941e-08 -1.00711e-08 0.0
-8.8591e-09 -7.61797e-09 0.0
-8.98671e-09 -5.97071e-09 0.0
-9.65876e-09 -6.33813e-09 0.0
-1.13263e-08 -5.19717e-09 0.0
-1.52394e-08 -5.75455e-09 0.0
-1.7184e-08 -5.43144e-09 0.0
-2.75861e-08 -9.7995e-09 0.0
-1.88522e-08 -4.01371e-09 0.0
-1.28746e-08 -1.25405e-09 0.0
-2.21139e-08 -3.55453e-09 0.0
-2.49048e-08 -1.56898e-09 0.0
-1.84113e-08 6.05772e-10 0.0
-1.8987e-08 -5.51689e-10 0.0
-9.20576e-09 -8.17443e-10 0.0
-4.13403e-09 3.74256e-10 0.0
-1.14545e-08 -2.04189e-09 0.0
-4.13892e-09 -1.04733e-10 0.0
-5.16802e-09 7.5519e-11 0.0
-1.1449e-08 -1.80611e-09 0.0
-7.59845e-09 -2.70051e-09 0.0
-1.16676e-08 -4.38689e-09 0.0
-4.33037e-09 -2.80649e-09 0.0
-1.5729e-08 -8.96898e-09 0.0
-1.16248e-08 -2.09442e-09 0.0
-1.73227e-08 -2.28017e-09 0.0
-1.49777e-08 -4.22798e-10 0.0
-2.01624e-08 -1.50923e-09 0.0
-3.35887e-09 -5.05589e-09 0.0
-1.61331e-08 -1.03635e-08 0.0
-1.22966e-10 -1.66053e-09 0.0
6.25091e-09 2.51493e-09 0.0
6.10023e-09 4.12422e-09 0.0
7.54145e-09 3.51083e-09 0.0
2.25611e-09 8.19469e-10 0.0
1.69273e-09 1.45631e-09 0.0
8.00595e-09 5.71658e-09 0.0
2.10113e-09 3.03123e-09 0.0
1.92437e-09 4.12059e-09 0.0
8.27331e-10 9.86751e-10 0.0
-6.81588e-09 -5.28555e-09 0.0
-1.23352e-09 -7.71923e-10 0.0
-4.67958e-09 -3.6283e-09 0.0
-2.37621e-09 -1.4738e-09 0.0
-5.43946e-09 -2.37553e-09 0.0
-2.79921e-09 -1.90605e-09 0.0
-8.50906e-09 -3.62523e-09 0.0
-1.73951e-09 -1.43963e-10 0.0
-1.46175e-08 -3.0709e-09 0.0
-4.86536e-09 7.03726e-10 0.0
-5.74994e-09 1.46765e-10 0.0
-6.01692e-09 5.69886e-10 0.0
-1.03403e-08 2.78855e-10 0.0
-4.84519e-09 1.73686e-10 0.0
-8.09238e-09 -2.56061e-10 0.0
VECTORS omega float
-0.00384136 -0.0225251 0.0445158
-0.0131185 0.0477523 -0.0565207
0.00101647 0.00325203 -0.0110165
0.0201923 -0.0499337 0.0102178
0.000240211 0.0216777 0.0199093
0.0182372 0.0469905 0.034114
-0.0103017 -0.028512 0.0120454
-0.0143728 -0.00601955 0.0226728
0.0283241 0.00243238 0.0235344
-0.00169798 0.0331669 0.00826508
0.00103984 -0.0326188 0.0129618
-0.0116528 0.0317151 0.00718842
0.0338519 -0.0400305 0.0485198
-0.00553859 0.0315937 0.0177796
-0.00337793 -0.026862 0.0136184
0.00498626 -0.000520713 0.103242
0.00256429 0.0296644 -0.0274983
0.000532321 -0.0130781 -0.0183276
0.0718258 -0.155537 0.100187
-0.00133679 0.0127856 0.00878693
0.0119395 -0.00362739 0.0448627
-0.0011584 0.00296209 0.0242318
-0.00122085 -0.0173401 0.0175083
-0.00336097 0.0141711 0.02537
0.0170539 -0.00148059 0.0167261
-0.00617594 -0.0162108 0.011335
0.0030063 0.00134124 -0.00202289
-0.00445398 0.0212896 0.0314984
-0.0208431 -0.0103653 0.0709946
0.0190758 -0.0105432 -0.00926532
-0.0248056 -0.0225615 0.0334512
0.00339636 0.00199582 0.0283171
-0.0169745 0.0262324 0.12665
0.0318514 0.000394606 -0.0409648
0.00705973 -0.0117219 0.117809
-0.00484883 0.00094463 0.00438136
0.000333277 0.000910749 0.00565605
0.0110311 -0.051255 0.168915
-0.00148593 0.000433486 0.13261
0.000488189 -0.00274009 0.00245385
0.0114052 0.0109102 0.135759
-0.0162559 -0.00384962 -0.0206753
0.0372452 0.0836701 0.0469246
-0.0512376 0.00975154 0.0454859
0.0170186 -0.0920149 0.011079
0.0131454 -0.00362996 0.0178918
-0.0329253 0.0735009 0.0749653
0.00987258 0.00491337 0.0022791
0.0226345 -0.105522 0.115629
-0.0300568 0.000162975 0.0264185
0.0788543 0.02669 -0.0237503
-0.029167 0.0266934 0.0533444
-0.0178059 -0.0480653 0.03787
-0.0209769 0.002143 -0.0140491
-0.0160494 0.0645182 0.0159425
0.0599754 0.0114078 0.0312652
-0.00505433 -0.063294 0.000798788
-0.00634467 0.0509553 0.00498537
-0.0751122 0.0779201 -0.0291027
0.0341337 -0.0372811 0.0120837
0.0057089 -0.0706003 0.0217685
-0.0195601 0.0369321 -0.00170487
-0.025534 0.0748838 0.0329324
0.0493073 -0.0295177 0.00448176
0.0108023 -0.0859837 0.0548649
0.00814546 0.0261023 -0.00317497
0.00803146 -0.0566966 0.0877864
-0.021145 0.000403755 0.0135317
0.0257223 -0.000193717 0.055088
-0.0256915 -0.00453276 0.0182733
0.00329861 -0.00545807 -0.00901226
-0.00341865 0.00666648 0.0541779
0.0204091 0.00205682 0.0803715
-0.0273004 -0.00111231 -0.0557076
0.0282603 0.00702223 0.0105468
0.0148958 -0.00313747 -0.0189501
-0.00772597 -0.00409372 0.00421785