# vtk DataFile Version 2.0
Generated by lpp.py
ASCII
DATASET POLYDATA
POINTS 400 float
0.0013252 0.000443725 3.36586e-05
0.000909895 0.00128598 -1.66342e-05
0.00024295 0.000443146 -3.64628e-05
0.00183281 0.00127799 5.09221e-06
0.0022673 0.000435691 -1.24497e-05
0.00273915 0.00128775 4.63423e-05
0.00324633 0.000515905 4.67087e-05
0.00374329 0.00129177 -1.5404e-05
0.00460476 0.0011956 -2.0603e-05
0.00417284 0.000417337 3.04549e-05
0.00511608 0.000469777 4.04467e-05
0.00566872 0.00130828 -2.65834e-05
0.00664051 0.00128951 -2.02466e-06
0.00602179 0.000418814 -1.20537e-05
0.00693148 0.000445303 3.91278e-05
0.00824302 0.00117618 -1.82355e-06
0.00779488 0.000364427 3.24564e-05
0.00876691 0.000398492 -3.28708e-05
0.00930157 0.001385 3.24568e-05
0.00975739 0.000490912 -2.76781e-05
0.0103857 0.00131169 -4.92787e-05
0.0113774 0.00139193 -4.32784e-06
0.010765 0.000443813 -3.96086e-06
0.0117798 0.000485483 -1.32742e-05
0.0124055 0.00132958 1.95463e-05
0.0127811 0.000442641 1.3181e-05
0.0134333 0.00122605 3.75182e-05
0.0136137 0.00032987 1.89547e-05
0.0143514 0.00161976 1.99029e-05
0.0143644 0.000727219 -4.71808e-05
0.0156462 0.00128552 1.72248e-05
0.0152274 0.000426814 3.7231e-06
0.0165485 0.00131595 3.54547e-05
0.0161577 0.000503568 -4.85386e-05
0.0177938 0.00133108 -3.92382e-05
0.017161 0.000538238 -3.8784e-05
0.0182411 0.000486069 3.096e-05
0.0199956 0.00131598 4.93031e-05
0.0189178 0.00128032 6.72355e-06
0.0192497 0.000430758 -3.72737e-05
0.000905333 0.00230702 5.14548e-06
0.000379303 0.00315797 -4.9345e-05
0.00206347 0.00294677 -3.17454e-05
0.00232082 0.00211947 -1.41959e-06
0.00292122 0.00285043 3.50109e-05
0.00325368 0.00201944 -3.46654e-05
0.00386187 0.00297753 -3.02218e-05
0.0041261 0.00209065 3.70504e-05
0.00497913 0.0030015 3.07542e-05
0.00497365 0.00196073 -2.23732e-05
0.00564175 0.00243829 -2.11247e-06
0.00623189 0.00307379 -3.67063e-05
0.00642018 0.00213337 3.11799e-05
0.0069862 0.00271032 -2.75116e-05
0.00731411 0.00191144 4.80419e-05
0.00772241 0.00291332 1.77683e-05
0.00828255 0.00219925 -3.97226e-05
0.00876036 0.0031195 4.55657e-05
0.00924336 0.0023069 1.80717e-05
0.00979941 0.00312834 -3.93388e-05
0.0101321 0.00222333 2.40231e-05
0.0107336 0.00309818 2.716e-05
0.0110924 0.00228168 -4.78087e-05
0.0116544 0.00309647 -4.25165e-05
0.0120556 0.00222681 -4.01526e-05
0.0126214 0.00312532 2.94528e-05
0.0131037 0.00222968 4.21294e-05
0.013649 0.00314419 2.4953e-06
0.0141631 0.00242045 2.35941e-05
0.0146258 0.00314206 -2.89305e-05
0.0150777 0.00224429 3.21045e-05
0.0156112 0.00308895 2.08022e-05
0.0160016 0.00209262 1.69816e-05
0.0164989 0.00284457 -1.31875e-05
0.0169232 0.00207865 -2.13541e-05
0.0173532 0.00302231 -2.48084e-05
0.0178594 0.00224462 7.17441e-06
0.0184387 0.00302934 -3.11061e-05
0.0188571 0.00220915 -6.697e-06
0.0194288 0.00303886 1.88296e-05
0.0198475 0.00217699 2.40593e-05
0.00131377 0.00346578 4.11056e-07
0.0015367 0.00437996 -3.43082e-05
0.00051375 0.00405419 4.11872e-05
0.000786921 0.00499901 1.15215e-05
0.00224893 0.00383303 4.14547e-05
0.00262125 0.00468362 2.79416e-05
0.00313263 0.00368805 -1.57031e-06
0.00359326 0.00469973 5.32063e-06
0.0040144 0.00391644 -2.6529e-06
0.0045791 0.00494679 -3.58607e-05
0.00499049 0.00397193 -2.13321e-05
0.00565542 0.00479158 -4.97251e-05
0.00596645 0.00390432 -2.41619e-05
0.00666957 0.00459887 -2.57589e-05
0.00701551 0.00365658 -4.22335e-05
0.00773905 0.0046263 4.30556e-05
0.0079534 0.00368299 4.42331e-05
0.00877002 0.00406095 -4.39636e-05
0.00979272 0.00487244 4.93343e-05
0.00960242 0.0040018 4.05756e-05
0.00870086 0.00490817 -1.72291e-05
0.0104171 0.00387949 -3.72271e-05
0.0107618 0.00467045 4.50596e-05
0.0112761 0.0039434 1.35023e-05
0.0119286 0.00475535 3.81834e-05
0.0121356 0.00389373 3.14585e-06
0.0128978 0.00492879 -2.4127e-05
0.0131247 0.00399508 1.0814e-05
0.0137581 0.00483784 -4.51984e-05
0.0141808 0.00402792 1.00341e-06
0.0147027 0.00489086 6.87793e-06
0.0151495 0.00395871 1.87838e-05
0.0160748 0.00415541 4.33922e-05
0.0167722 0.00468939 2.18197e-05
0.0170239 0.00386802 -2.12721e-05
0.0176555 0.00460859 6.56493e-06
0.0179567 0.00377742 9.36883e-06
0.0186904 0.00453846 3.03201e-05
0.0194029 0.00392517 1.43967e-05
0.0197456 0.00478882 -2.66714e-05
0.00118968 0.00595001 1.46596e-05
0.000316056 0.00650294 -3.99128e-05
7.91919e-05 0.00571557 -3.26099e-05
0.00180706 0.00521791 -7.07934e-06
0.00212468 0.00645907 -2.06108e-05
0.00262354 0.00563286 3.54227e-05
0.00312062 0.00641102 -2.96496e-05
0.00357688 0.00562846 1.90715e-05
0.00443647 0.0059122 1.72497e-05
0.00535032 0.0057612 2.50127e-05
0.00594369 0.00650222 -4.27825e-05
0.00628623 0.00553433 2.43943e-05
0.00678733 0.00637453 -3.07296e-05
0.00719687 0.00549533 -2.4969e-05
0.0076951 0.00633576 1.47771e-05
0.0081698 0.0055602 -2.62417e-05
0.00863042 0.00633193 -3.20614e-05
0.00924925 0.00566047 -4.70071e-05
0.0101077 0.00575047 4.476e-05
0.0109217 0.0055531 -5.06646e-06
0.0113771 0.00651093 -4.22073e-05
0.0117496 0.00566563 2.60985e-05
0.0123276 0.00640409 1.83575e-05
0.012513 0.00559757 -2.28987e-05
0.0132088 0.00609307 2.90979e-05
0.0141493 0.00577147 4.28851e-05
0.0151722 0.00589354 -1.46308e-05
0.0156731 0.00502205 -7.56683e-06
0.0160496 0.00623943 -4.83823e-05
0.0165104 0.00551961 2.89194e-05
0.016981 0.00632266 3.21564e-05
0.0173129 0.00537647 -4.85919e-05
0.0180692 0.00628228 -1.12464e-05
0.0181373 0.00535564 3.12852e-05
0.0192845 0.00635987 2.46256e-05
0.0190527 0.00549056 -4.44854e-05
0.0012611 0.00681391 -2.73404e-05
0.00113746 0.00795908 -3.38667e-05
0.000596426 0.00725988 -4.2113e-05
0.000105641 0.00807619 1.49646e-05
0.00189952 0.00742526 7.74856e-06
0.00205141 0.00829851 5.5329e-07
0.00283085 0.00725612 3.67542e-05
0.00292441 0.00819994 1.2865e-05
0.00374313 0.00772297 -4.70278e-05
0.00399529 0.00673781 -1.13161e-05
0.00471791 0.00768238 1.72877e-05
0.00505098 0.00677379 -4.33679e-05
0.00568432 0.00765955 7.98975e-06
0.00646115 0.00722428 -4.89198e-05
0.00703696 0.00808623 -1.8846e-05
0.00735791 0.00719551 -2.80691e-05
0.00791911 0.00787607 -4.34141e-05
0.00823826 0.00712339 2.59556e-05
0.00883939 0.00784791 -3.81694e-05
0.00941153 0.00692419 -2.37608e-06
0.00982861 0.00782863 -1.57412e-05
0.0104024 0.00667983 -1.47472e-05
0.0107375 0.00823403 4.979e-05
0.011029 0.00736041 2.22644e-05
0.011717 0.00820888 -4.55597e-05
0.0120339 0.00729966 -4.5975e-05
0.0128513 0.00785169 4.23607e-05
0.0130161 0.00699229 4.20701e-05
0.0138449 0.00781581 -5.04024e-06
0.0138999 0.00679882 1.64328e-05
0.014848 0.00792215 -1.6913e-05
0.0149034 0.00691163 -4.21217e-05
0.0158163 0.00811096 -3.94419e-05
0.0159108 0.00713296 -1.21974e-05
0.0166785 0.0077014 -3.70828e-05
0.0174834 0.00715043 -3.33274e-05
0.01815 0.00805607 -3.83096e-05
0.0184996 0.00717503 -2.02095e-05
0.0191713 0.00778192 -4.84051e-05
0.0197512 0.00712984 -3.46879e-05
0.00159432 0.00915008 2.66777e-05
0.0007978 0.00875835 -3.96098e-06
0.000727639 0.00962902 -1.72888e-05
0.00231392 0.00997623 2.41907e-05
0.00257697 0.00906483 4.87165e-05
0.00322506 0.00972719 7.50784e-06
0.00347366 0.00889119 -7.08428e-06
0.00418704 0.00954441 6.12283e-06
0.00435365 0.00858023 1.74262e-06
0.00516279 0.00943799 -2.81666e-05
0.0053495 0.00853122 -1.04316e-05
0.00610987 0.00937745 9.49774e-06
0.00622954 0.00848896 -4.45245e-05
0.00694094 0.00902727 3.54547e-06
0.00740219 0.00987111 -2.7703e-05
0.0077853 0.00871514 -4.92713e-05
0.00819908 0.00951296 1.26179e-05
0.00870444 0.00879061 4.93873e-05
0.00909837 0.00970397 -4.18982e-05
0.00971534 0.00886102 -9.33208e-06
0.0106681 0.0092888 -3.72943e-05
0.011373 0.00989258 1.32074e-05
0.0116111 0.00907887 3.24679e-05
0.012297 0.00975961 -1.82378e-05
0.0125495 0.00876038 4.17083e-05
0.0132139 0.00962453 2.0062e-05
0.0135508 0.0088041 -3.30909e-05
0.0140361 0.00959893 -4.57402e-05
0.0145403 0.00882766 -3.07794e-05
0.0149126 0.00967028 4.85236e-05
0.0154895 0.00898097 -3.2558e-05
0.0158063 0.00994001 -4.73944e-05
0.0164615 0.00883783 -2.5672e-05
0.0166988 0.00969316 -3.5681e-05
0.017317 0.00835101 2.81917e-06
0.0174219 0.00923205 -4.5525e-06
0.0183168 0.00993144 1.70983e-05
0.0199525 0.0090849 -3.41589e-05
0.018339 0.00898669 -3.29151e-05
0.0191452 0.00955475 4.46827e-05
0.0191451 0.00861117 -3.50995e-05
0.00160642 0.0115948 -2.75196e-05
0.00142145 0.0100976 -3.628e-05
0.00100358 0.0108598 -3.81409e-05
9.63052e-05 0.0110252 4.26166e-05
0.00191381 0.0107563 2.8646e-05
0.0025522 0.0113923 1.79805e-07
0.00297029 0.0105896 -3.0738e-05
0.0035269 0.0113161 1.32908e-05
0.00386635 0.010445 3.19371e-06
0.0044904 0.011276 -4.05009e-05
0.00488535 0.0103856 2.58338e-05
0.00543069 0.0112344 5.57899e-06
0.00580285 0.0102255 3.55182e-05
0.00633434 0.0110329 -2.60959e-05
0.00661771 0.0101987 1.90003e-05
0.00726543 0.0108303 2.40728e-05
0.00804774 0.0115381 -1.09524e-05
0.0082241 0.0105094 -2.41459e-05
0.00920698 0.0106624 1.14157e-05
0.00899689 0.011559 -2.28614e-05
0.00997038 0.0100987 7.96265e-06
0.0100548 0.0110612 4.36203e-05
0.010773 0.0104735 4.40746e-05
0.0109746 0.0113629 4.26806e-05
0.0117187 0.0107229 1.59016e-05
0.0126497 0.0106147 -4.05226e-06
0.013125 0.0112619 -3.49974e-05
0.0135759 0.0104316 -2.12959e-05
0.0139387 0.0112395 -3.47829e-05
0.0144918 0.010361 -6.10015e-06
0.0148502 0.0112146 -4.9699e-05
0.0158137 0.0110013 -3.49785e-05
0.0165877 0.0105625 -3.04875e-05
0.0166284 0.0115683 2.14731e-05
0.0173216 0.0110702 4.23831e-06
0.0174576 0.0102047 1.54215e-05
0.0182971 0.0109067 -4.02054e-05
0.0190819 0.01043 -1.5365e-05
0.0192164 0.01131 -1.60515e-05
0.0199379 0.0101229 -4.17269e-05
0.00139159 0.012654 1.39627e-05
0.000687212 0.0118009 -9.96495e-06
0.00045159 0.0127301 2.195e-05
0.00226527 0.0123214 1.50647e-05
0.00294529 0.0130598 -2.83946e-05
0.00319023 0.0121452 2.84116e-05
0.00404338 0.0129442 -8.8818e-06
0.00406942 0.0120339 -1.71454e-05
0.00494478 0.0130894 4.3363e-05
0.0050425 0.0121539 3.19528e-05
0.00579394 0.0129024 -3.24457e-07
0.00606469 0.0119616 1.74786e-05
0.00665498 0.0126477 -2.9504e-05
0.00707815 0.0117958 2.61725e-05
0.00756775 0.0127002 -7.28073e-06
0.00855187 0.0124189 2.21972e-05
0.0092924 0.0130098 3.4178e-05
0.00981979 0.0119904 -3.43726e-05
0.0101339 0.0129258 2.4284e-05
0.0107569 0.0122964 4.99362e-05
0.0111522 0.0131374 1.79808e-05
0.0119108 0.0117301 3.01021e-05
0.0120692 0.0128003 -4.81269e-05
0.0128199 0.0119907 3.49515e-06
0.0131215 0.0128309 8.09002e-06
0.0137693 0.0121016 -1.27408e-05
0.0142598 0.0129711 1.51186e-05
0.0147279 0.0121959 -2.52694e-05
0.0154681 0.0127977 -2.24734e-05
0.0155895 0.01189 -4.84058e-07
0.0163248 0.0124316 2.73575e-05
0.0171394 0.0123298 2.6071e-05
0.0172332 0.0131972 -3.7354e-05
0.0178906 0.0118428 -4.54593e-05
0.0179638 0.0127928 -4.8395e-05
0.0187046 0.0130943 7.82155e-06
0.0188538 0.0121958 -1.47463e-05
0.0195454 0.0129237 -3.72359e-05
0.0197913 0.0120501 -4.13942e-05
0.0011061 0.0135728 -4.1589e-05
0.000952528 0.0145445 -1.31753e-05
0.000173462 0.0136118 -1.17246e-06
0.00190185 0.0145657 -5.27218e-06
0.00201145 0.0133428 2.70269e-05
0.00266887 0.0140033 -4.69919e-05
0.00307392 0.0148445 2.49655e-05
0.0036074 0.0138005 2.96183e-05
0.00398241 0.0146149 1.43924e-05
0.00459721 0.0139053 -3.62044e-05
0.00521172 0.0145408 2.52958e-05
0.00553867 0.0137739 -4.96651e-05
0.00606813 0.0145267 -1.66336e-06
0.00644875 0.0136476 -6.05535e-06
0.0069901 0.0145732 -2.79437e-05
0.00743234 0.013702 1.57621e-06
0.00804922 0.0145646 -3.93501e-06
0.00838319 0.0134467 4.44824e-05
0.00911807 0.0140477 4.05064e-05
0.0097626 0.0147246 -8.94147e-06
0.00895329 0.0149823 -1.15952e-07
0.0100819 0.0138492 -3.1985e-05
0.0106031 0.0146524 2.67646e-06
0.0110167 0.0139552 8.79731e-06
0.0114874 0.01469 -1.90989e-05
0.0118085 0.0137567 1.18363e-05
0.0123249 0.0144652 -1.70971e-05
0.012691 0.0136422 2.04004e-05
0.0132498 0.0143814 -4.99115e-05
0.0136425 0.013585 4.34762e-05
0.0141871 0.0146394 2.36495e-05
0.0144875 0.0138163 1.50053e-05
0.0151337 0.0145935 -1.68329e-05
0.0153693 0.0136948 2.59986e-05
0.0161427 0.0144172 -4.8797e-05
0.0162794 0.0133868 -2.94781e-05
0.017153 0.0141678 -3.80464e-05
0.0180074 0.0146261 6.36771e-07
0.0180677 0.0136987 -4.54767e-05
0.0199505 0.0145336 -2.39016e-05
0.0189423 0.0145417 -3.38088e-05
0.0192706 0.0137379 6.46138e-06
0.0014398 0.015398 3.1619e-05
0.00103363 0.0162515 -3.75421e-05
0.000517573 0.015394 1.65265e-05
0.000145288 0.0162431 3.22872e-05
0.00198834 0.0162625 -2.29225e-05
0.00236639 0.0154158 -4.48401e-05
0.00301532 0.0161905 -1.88293e-05
0.00374866 0.0155209 5.22691e-06
0.00399636 0.0163416 -2.84806e-06
0.00464911 0.0152448 3.75063e-05
0.00491857 0.0161971 -2.57249e-06
0.00558284 0.0153353 -3.31627e-05
0.00593966 0.016218 4.29286e-05
0.00656334 0.0154128 3.83299e-05
0.00692792 0.0162876 8.05502e-06
0.00748518 0.0153707 -1.60873e-07
0.00780675 0.0162824 4.44584e-05
0.00839798 0.0156746 1.77529e-05
0.00920335 0.0160938 1.78253e-05
0.00994302 0.0155473 1.34032e-05
0.0100293 0.0163669 -1.78006e-05
0.0107834 0.0163488 3.69213e-05
0.0109476 0.0154954 -2.36735e-05
0.0116392 0.0162675 -3.81553e-05
0.0120295 0.0154055 -3.46021e-05
0.0126374 0.0162176 4.68532e-05
0.013057 0.0153167 -4.47667e-06
0.0136297 0.0163155 -3.82493e-05
0.0140125 0.0155212 4.44816e-05
0.0145458 0.0162969 2.60965e-05
0.0149285 0.0154789 -1.42244e-05
0.0154642 0.0162595 -2.63927e-05
0.0158642 0.0153997 1.45032e-05
0.0163436 0.0162682 1.42827e-05
0.0168857 0.0152249 8.61202e-06
0.0172643 0.0162314 1.04172e-05
0.0177977 0.0154403 -1.6534e-05
0.0182685 0.016246 1.14277e-05
0.018669 0.0153945 3.47044e-05
0.0192431 0.0162476 4.63278e-05
0.0195978 0.0154169 -1.23126e-05
VERTICES 400 800
1 0
1 1
1 2
1 3
1 4
1 5
1 6
1 7
1 8
1 9
1 10
1 11
1 12
1 13
1 14
1 15
1 16
1 17
1 18
1 19
1 20
1 21
1 22
1 23
1 24
1 25
1 26
1 27
1 28
1 29
1 30
1 31
1 32
1 33
1 34
1 35
1 36
1 37
1 38
1 39
1 40
1 41
1 42
1 43
1 44
1 45
1 46
1 47
1 48
1 49
1 50
1 51
1 52
1 53
1 54
1 55
1 56
1 57
1 58
1 59
1 60
1 61
1 62
1 63
1 64
1 65
1 66
1 67
1 68
1 69
1 70
1 71
1 72
1 73
1 74
1 75
1 76
1 77
1 78
1 79
1 80
1 81
1 82
1 83
1 84
1 85
1 86
1 87
1 88
1 89
1 90
1 91
1 92
1 93
1 94
1 95
1 96
1 97
1 98
1 99
1 100
1 101
1 102
1 103
1 104
1 105
1 106
1 107
1 108
1 109
1 110
1 111
1 112
1 113
1 114
1 115
1 116
1 117
1 118
1 119
1 120
1 121
1 122
1 123
1 124
1 125
1 126
1 127
1 128
1 129
1 130
1 131
1 132
1 133
1 134
1 135
1 136
1 137
1 138
1 139
1 140
1 141
1 142
1 143
1 144
1 145
1 146
1 147
1 148
1 149
1 150
1 151
1 152
1 153
1 154
1 155
1 156
1 157
1 158
1 159
1 160
1 161
1 162
1 163
1 164
1 165
1 166
1 167
1 168
1 169
1 170
1 171
1 172
1 173
1 174
1 175
1 176
1 177
1 178
1 179
1 180
1 181
1 182
1 183
1 184
1 185
1 186
1 187
1 188
1 189
1 190
1 191
1 192
1 193
1 194
1 195
1 196
1 197
1 198
1 199
1 200
1 201
1 202
1 203
1 204
1 205
1 206
1 207
1 208
1 209
1 210
1 211
1 212
1 213
1 214
1 215
1 216
1 217
1 218
1 219
1 220
1 221
1 222
1 223
1 224
1 225
1 226
1 227
1 228
1 229
1 230
1 231
1 232
1 233
1 234
1 235
1 236
1 237
1 238
1 239
1 240
1 241
1 242
1 243
1 244
1 245
1 246
1 247
1 248
1 249
1 250
1 251
1 252
1 253
1 254
1 255
1 256
1 257
1 258
1 259
1 260
1 261
1 262
1 263
1 264
1 265
1 266
1 267
1 268
1 269
1 270
1 271
1 272
1 273
1 274
1 275
1 276
1 277
1 278
1 279
1 280
1 281
1 282
1 283
1 284
1 285
1 286
1 287
1 288
1 289
1 290
1 291
1 292
1 293
1 294
1 295
1 296
1 297
1 298
1 299
1 300
1 301
1 302
1 303
1 304
1 305
1 306
1 307
1 308
1 309
1 310
1 311
1 312
1 313
1 314
1 315
1 316
1 317
1 318
1 319
1 320
1 321
1 322
1 323
1 324
1 325
1 326
1 327
1 328
1 329
1 330
1 331
1 332
1 333
1 334
1 335
1 336
1 337
1 338
1 339
1 340
1 341
1 342
1 343
1 344
1 345
1 346
1 347
1 348
1 349
1 350
1 351
1 352
1 353
1 354
1 355
1 356
1 357
1 358
1 359
1 360
1 361
1 362
1 363
1 364
1 365
1 366
1 367
1 368
1 369
1 370
1 371
1 372
1 373
1 374
1 375
1 376
1 377
1 378
1 379
1 380
1 381
1 382
1 383
1 384
1 385
1 386
1 387
1 388
1 389
1 390
1 391
1 392
1 393
1 394
1 395
1 396
1 397
1 398
1 399
POINT_DATA 400
VECTORS f float
2.22948e-09 -6.09808e-09 0.0
4.84954e-09 -1.76376e-08 0.0
-6.43837e-09 -1.47299e-09 0.0
1.06799e-09 -1.36335e-08 0.0
1.05024e-09 -8.78519e-09 0.0
-1.44229e-09 -1.21194e-08 0.0
1.80998e-10 -9.30649e-09 0.0
3.02757e-09 -1.04332e-08 0.0
6.28507e-10 -5.71062e-09 0.0
1.27986e-09 -4.03186e-09 0.0
2.01189e-09 -4.29032e-09 0.0
2.29318e-09 -7.13286e-09 0.0
4.8369e-09 -1.68701e-09 0.0
1.65157e-09 -1.90434e-09 0.0
9.08733e-10 -1.39041e-09 0.0
5.74114e-09 1.16195e-08 0.0
1.0472e-10 2.00625e-09 0.0
2.60167e-10 2.7778e-09 0.0
4.09559e-09 1.18861e-08 0.0
2.96383e-09 6.0729e-09 0.0
7.78636e-09 8.31075e-09 0.0
1.1982e-08 6.86768e-09 0.0
3.09198e-09 3.81977e-09 0.0
1.08041e-08 5.84114e-09 0.0
2.1582e-08 4.70847e-09 0.0
1.01337e-08 2.27735e-09 0.0
3.20492e-08 1.11051e-09 0.0
9.17129e-09 -4.61481e-10 0.0
3.12753e-08 1.42968e-09 0.0
3.10349e-08 7.17552e-09 0.0
4.78706e-08 5.00534e-09 0.0
2.89731e-08 -5.55233e-10 0.0
7.07754e-09 6.4928e-09 0.0
2.27217e-08 -7.40767e-09 0.0
1.85542e-08 2.5495e-09 0.0
1.78541e-08 1.06048e-08 0.0
9.16346e-09 5.17919e-10 0.0
6.57252e-09 8.65013e-10 0.0
1.6376e-08 2.72974e-10 0.0
1.98434e-09 -3.28639e-09 0.0
2.19768e-08 -2.17924e-08 0.0
2.0014e-08 -1.42122e-08 0.0
1.41602e-09 -1.38598e-08 0.0
-1.22279e-09 -1.91772e-08 0.0
-1.70439e-09 -1.53011e-08 0.0
-1.51144e-09 -1.9198e-08 0.0
-8.04936e-09 -3.92606e-08 0.0
-3.63054e-10 -1.88822e-08 0.0
2.27325e-09 -2.31263e-08 0.0
1.72783e-09 -9.57239e-09 0.0
3.29617e-09 -1.01351e-08 0.0
-3.45886e-09 -6.72595e-09 0.0
5.16433e-09 -3.73132e-09 0.0
6.04288e-10 1.17397e-09 0.0
6.14903e-09 3.33196e-09 0.0
-1.05977e-09 6.54769e-09 0.0
8.81704e-09 1.99229e-08 0.0
-2.3644e-10 2.01615e-08 0.0
3.96258e-09 1.16306e-08 0.0
3.51311e-09 1.73773e-08 0.0
6.53179e-09 1.16277e-08 0.0
5.60625e-09 5.96855e-09 0.0
8.55093e-09 5.81199e-09 0.0
1.31018e-08 1.10978e-09 0.0
1.32067e-08 4.25691e-09 0.0
1.87448e-08 -1.24291e-08 0.0
2.91579e-08 -9.93675e-09 0.0
2.49757e-08 -1.04245e-08 0.0
2.50853e-08 -1.31549e-09 0.0
2.50745e-08 1.61125e-09 0.0
4.40338e-08 2.71427e-09 0.0
4.00871e-08 2.6685e-08 0.0
3.65014e-08 1.53699e-08 0.0
3.24052e-08 2.17352e-08 0.0
1.74933e-08 7.976e-09 0.0
3.11565e-08 2.02132e-09 0.0
3.5803e-08 2.26944e-09 0.0
2.70558e-08 6.56052e-09 0.0
2.9537e-08 3.57436e-09 0.0
3.43504e-08 1.31542e-09 0.0
3.0936e-08 2.19807e-09 0.0
1.21923e-08 -1.97899e-08 0.0
-8.87279e-09 -1.32991e-08 0.0
-3.6961e-09 -1.88689e-08 0.0
-3.8985e-08 -2.66274e-08 0.0
2.62396e-09 -1.41597e-08 0.0
-1.78343e-08 -1.11596e-08 0.0
-3.94982e-10 -2.14336e-08 0.0
-2.83104e-08 -4.87119e-08 0.0
-4.50077e-09 -3.83233e-08 0.0
-4.19194e-08 -4.43956e-08 0.0
-1.8226e-08 -3.54767e-08 0.0
-4.45855e-08 -1.97309e-08 0.0
-1.28557e-08 -7.46655e-09 0.0
-3.57625e-08 4.84285e-09 0.0
-1.37233e-08 7.14727e-09 0.0
-4.34459e-08 2.41799e-08 0.0
-1.06622e-08 1.27055e-08 0.0
-9.22865e-09 2.04805e-08 0.0
-2.05724e-08 2.25025e-08 0.0
2.2779e-10 1.46314e-08 0.0
-2.55459e-08 2.017e-08 0.0
3.89108e-09 3.44216e-09 0.0
-2.10748e-08 2.04661e-09 0.0
8.08089e-09 7.11393e-09 0.0
-9.51003e-09 -2.57787e-08 0.0
9.78447e-09 -8.96207e-09 0.0
-7.25614e-09 -1.3874e-08 0.0
1.75902e-08 -1.79622e-08 0.0
-1.53077e-09 -7.91969e-09 0.0
8.7804e-09 -7.15173e-09 0.0
-2.82634e-09 -1.51439e-09 0.0
7.22741e-09 1.12161e-08 0.0
-1.57796e-09 6.19614e-09 0.0
-3.22531e-09 -2.03329e-09 0.0
-3.8352e-09 -9.03084e-09 0.0
-1.085e-08 -1.59268e-09 0.0
5.90234e-09 -1.34294e-09 0.0
-2.95406e-08 -1.73588e-10 0.0
-2.48266e-09 1.50173e-09 0.0
-2.99018e-08 -5.01181e-09 0.0
-2.34777e-08 -1.75196e-08 0.0
-8.59039e-09 -6.80767e-09 0.0
-1.86271e-08 -1.00019e-08 0.0
-3.03674e-08 -1.8313e-08 0.0
-2.94078e-08 -2.30754e-08 0.0
-3.56052e-08 -2.08026e-08 0.0
-1.96978e-08 -2.175e-08 0.0
-5.41892e-08 -6.283e-08 0.0
-3.44416e-08 -3.22977e-08 0.0
-5.5793e-08 -1.23802e-08 0.0
-2.05983e-08 2.16149e-09 0.0
-2.81564e-08 6.42076e-10 0.0
-3.1007e-08 1.64501e-08 0.0
-4.03307e-08 1.70937e-08 0.0
-3.72822e-08 2.19787e-08 0.0
-3.1072e-08 1.6637e-08 0.0
-3.78078e-08 2.30717e-08 0.0
-3.66282e-08 2.06687e-08 0.0
-3.34262e-08 1.69536e-08 0.0
-3.49239e-08 -1.68514e-10 0.0
-3.19261e-08 -1.74212e-08 0.0
-2.8688e-08 -2.15903e-08 0.0
-2.5811e-08 -2.24421e-08 0.0
-1.62803e-08 -1.38028e-08 0.0
-2.49396e-08 -2.82734e-08 0.0
-2.81081e-08 -1.78044e-08 0.0
-2.02545e-08 7.0277e-09 0.0
-6.28667e-09 6.26299e-09 0.0
-1.26152e-08 3.49744e-09 0.0
-1.20095e-08 2.62935e-09 0.0
-1.25307e-08 6.866e-09 0.0
-9.72469e-09 -9.02595e-10 0.0
-3.43285e-08 2.05582e-09 0.0
-1.78209e-08 -3.28526e-10 0.0
-1.26821e-08 -3.70192e-09 0.0
-1.93544e-08 5.39179e-10 0.0
-1.12496e-08 -1.0118e-08 0.0
-6.0155e-09 -1.88455e-08 0.0
-7.53403e-09 -8.80468e-09 0.0
-8.10043e-09 -1.59731e-08 0.0
-8.49458e-09 -1.58142e-08 0.0
2.91028e-09 -1.24079e-08 0.0
-1.22646e-08 -3.16639e-08 0.0
5.00614e-09 -1.83712e-08 0.0
3.31677e-09 -1.68449e-08 0.0
-2.76009e-08 -4.92345e-08 0.0
-2.4001e-09 7.7754e-09 0.0
-3.73085e-08 8.22158e-09 0.0
-1.01521e-08 1.31233e-08 0.0
-2.38676e-08 1.66525e-08 0.0
-2.46153e-09 4.52937e-08 0.0
-2.07193e-08 2.1895e-08 0.0
-6.31251e-09 1.41182e-08 0.0
-1.96124e-08 1.54426e-08 0.0
-1.56879e-08 2.06701e-08 0.0
-3.84972e-08 2.33213e-08 0.0
-8.90102e-09 3.87468e-09 0.0
-4.23866e-08 4.88567e-09 0.0
1.37506e-09 -1.04455e-08 0.0
-1.10895e-08 -6.96854e-09 0.0
-9.2332e-10 -1.40577e-08 0.0
-1.96291e-08 -2.37055e-08 0.0
-7.00971e-09 -1.68935e-08 0.0
-1.19387e-08 -1.87314e-08 0.0
-1.47932e-08 -1.5236e-08 0.0
-1.1495e-08 -1.43898e-08 0.0
-1.17783e-08 -1.44914e-10 0.0
-1.78388e-08 4.55571e-09 0.0
-1.54116e-08 4.9152e-09 0.0
-1.46784e-08 5.20773e-09 0.0
-1.68236e-08 1.16231e-08 0.0
-2.26112e-08 1.24332e-08 0.0
-1.13708e-08 -6.48152e-10 0.0
-2.23459e-08 -3.20891e-09 0.0
-8.35182e-09 -6.93972e-09 0.0
-1.18394e-08 -8.91924e-09 0.0
1.09308e-08 -2.11309e-08 0.0
1.27444e-09 -9.0516e-09 0.0
8.36858e-09 -1.52228e-08 0.0
1.87259e-08 -1.51366e-08 0.0
1.33956e-08 -1.70695e-08 0.0
1.25614e-08 -7.40332e-09 0.0
7.81113e-09 -5.48417e-09 0.0
2.04622e-08 9.23772e-09 0.0
8.48542e-09 8.99079e-09 0.0
1.74775e-08 1.68933e-08 0.0
7.62644e-09 1.69358e-08 0.0
1.97058e-08 3.35989e-08 0.0
6.23742e-09 1.99037e-08 0.0
1.5227e-08 3.33747e-08 0.0
3.2245e-08 4.44392e-08 0.0
6.86658e-09 2.32664e-08 0.0
2.09898e-08 2.38465e-08 0.0
6.89061e-09 1.60779e-08 0.0
3.00957e-08 4.03348e-09 0.0
1.60995e-08 4.93964e-10 0.0
1.44414e-08 -7.02844e-09 0.0
1.24697e-08 -7.06432e-09 0.0
6.2877e-09 -8.23718e-09 0.0
1.42256e-08 -1.49311e-08 0.0
2.15311e-09 -2.00412e-08 0.0
8.57166e-10 -9.86345e-10 0.0
-2.60934e-09 -6.77692e-09 0.0
-1.62339e-09 2.25282e-09 0.0
-8.95924e-09 1.89883e-09 0.0
-4.85192e-09 5.79329e-09 0.0
-1.01596e-08 4.32789e-09 0.0
-8.43483e-09 5.21876e-09 0.0
-1.08151e-08 3.06731e-09 0.0
-3.93037e-09 2.32048e-09 0.0
-9.14142e-09 5.86597e-09 0.0
-3.73084e-09 4.28407e-09 0.0
1.09325e-09 -3.13955e-09 0.0
2.85765e-09 -1.61304e-08 0.0
-4.81168e-09 -1.69873e-09 0.0
2.29077e-09 -8.06022e-09 0.0
-3.44198e-09 -6.24686e-09 0.0
1.45773e-08 -1.66244e-08 0.0
1.07242e-08 -1.25184e-08 0.0
1.19852e-08 -1.50724e-08 0.0
8.73417e-09 -1.2652e-08 0.0
1.07914e-08 -1.00579e-08 0.0
1.87487e-08 -1.19945e-08 0.0
1.47498e-08 -5.90467e-09 0.0
1.38542e-08 1.80784e-10 0.0
3.01087e-08 5.32117e-09 0.0
1.7897e-08 1.39006e-08 0.0
3.71332e-08 3.0033e-08 0.0
1.72909e-08 2.31832e-08 0.0
2.24105e-08 2.77347e-08 0.0
2.30184e-08 3.37561e-08 0.0
1.95921e-08 2.48486e-08 0.0
2.65007e-08 3.85996e-08 0.0
1.02084e-08 -1.7346e-08 0.0
4.66533e-08 2.95653e-08 0.0
4.04045e-08 -7.20807e-09 0.0
2.61996e-08 -1.94369e-08 0.0
2.9813e-08 -8.89861e-09 0.0
3.24828e-08 -1.11975e-08 0.0
2.11994e-08 -8.01898e-09 0.0
2.30932e-08 -1.17402e-08 0.0
1.99716e-08 -7.21089e-09 0.0
3.09829e-09 -1.8341e-09 0.0
-5.03283e-09 6.5007e-09 0.0
-3.74839e-09 8.43858e-09 0.0
-5.53494e-09 7.99539e-09 0.0
-4.88545e-09 7.36793e-09 0.0
-1.35124e-08 1.5552e-08 0.0
-9.7877e-09 7.60015e-09 0.0
-6.50415e-09 4.17355e-09 0.0
-5.54753e-09 3.30623e-09 0.0
-2.58041e-09 6.58742e-10 0.0
-4.05603e-09 2.50212e-09 0.0
4.59903e-09 -7.41888e-09 0.0
3.96183e-09 -6.93436e-09 0.0
6.61484e-09 -1.10355e-08 0.0
7.00825e-09 -1.29379e-08 0.0
6.76489e-09 -1.41408e-08 0.0
1.28939e-08 -2.0951e-08 0.0
7.41321e-09 -1.48612e-08 0.0
9.90358e-09 -1.16794e-08 0.0
4.99168e-09 -4.46676e-09 0.0
9.87769e-09 -2.32778e-09 0.0
6.38395e-10 1.07588e-08 0.0
9.13377e-09 6.57497e-09 0.0
-1.79174e-09 9.76729e-09 0.0
1.18252e-08 2.97464e-08 0.0
-2.39321e-09 2.5899e-08 0.0
1.60699e-08 3.57243e-08 0.0
1.09085e-08 2.22566e-08 0.0
1.32769e-08 2.99291e-08 0.0
3.41676e-08 -2.11087e-08 0.0
9.11737e-09 -5.09985e-08 0.0
7.12794e-09 -5.36192e-08 0.0
2.30021e-08 -5.40658e-09 0.0
-3.71556e-09 -2.47594e-08 0.0
3.49681e-08 -1.13515e-08 0.0
-8.32629e-09 -8.24178e-09 0.0
4.72121e-09 6.99278e-09 0.0
-2.75399e-08 2.57249e-08 0.0
-7.13681e-09 1.24571e-08 0.0
-2.62591e-08 2.41602e-08 0.0
-1.63329e-08 2.14517e-08 0.0
-1.69988e-08 1.29506e-08 0.0
-1.29948e-08 1.5949e-08 0.0
-7.40544e-09 5.39747e-09 0.0
-1.01897e-08 8.86036e-09 0.0
-7.23549e-09 3.97133e-09 0.0
-1.72204e-09 -9.5514e-11 0.0
-3.48771e-09 -1.49522e-09 0.0
-9.72675e-11 -8.35327e-09 0.0
1.77856e-10 -3.78363e-09 0.0
2.40679e-09 -5.40326e-09 0.0
5.63828e-09 -1.38218e-08 0.0
5.88325e-09 -1.39282e-08 0.0
6.30405e-09 -1.27692e-08 0.0
4.80138e-09 -1.31729e-08 0.0
-5.67131e-10 -8.69747e-09 0.0
3.50037e-09 -1.16493e-08 0.0
-2.76674e-09 -4.5245e-09 0.0
2.31934e-09 -8.38326e-09 0.0
-2.93212e-09 -3.23841e-09 0.0
-4.8676e-09 1.31111e-09 0.0
-5.12065e-09 4.70487e-09 0.0
-5.60274e-09 5.44365e-09 0.0
-8.42306e-09 1.43571e-08 0.0
-7.08902e-09 1.10919e-08 0.0
-1.20517e-08 1.8161e-08 0.0
-4.12527e-09 1.47297e-08 0.0
-3.01043e-08 2.21313e-08 0.0
1.00296e-08 -7.29848e-09 0.0
-6.19359e-08 -5.00993e-08 0.0
-1.01531e-07 -3.42206e-08 0.0
-7.15594e-08 -6.6751e-08 0.0
-8.82945e-08 -1.8548e-08 0.0
-5.40237e-08 -1.28584e-08 0.0
-6.2886e-08 -5.04427e-10 0.0
-1.26686e-07 -4.18385e-08 0.0
-5.12408e-08 -1.31175e-08 0.0
-4.61716e-08 -1.26605e-08 0.0
-5.9208e-08 -2.30797e-08 0.0
-4.05985e-08 1.66323e-08 0.0
-2.50971e-08 2.60406e-08 0.0
-3.28546e-08 2.21886e-08 0.0
-3.22113e-08 1.62462e-08 0.0
-2.0758e-08 1.11078e-08 0.0
-1.60764e-08 5.94524e-09 0.0
-1.5165e-08 6.96709e-09 0.0
-1.39919e-08 2.47279e-09 0.0
-1.26367e-08 3.73654e-09 0.0
-1.04446e-08 -2.66659e-10 0.0
-1.05172e-08 3.72762e-09 0.0
-6.43192e-09 -3.94576e-09 0.0
-2.56756e-09 -5.84626e-09 0.0
-8.66238e-10 -6.90354e-09 0.0
-3.36982e-10 -1.55173e-08 0.0
-1.66053e-09 -1.26574e-08 0.0
2.09547e-09 -1.01217e-08 0.0
-2.29706e-09 -3.51182e-09 0.0
-9.82551e-10 -1.81822e-09 0.0
-1.95313e-09 -7.69949e-09 0.0
-8.1457e-10 -3.57554e-09 0.0
-2.07629e-09 -5.8968e-10 0.0
-3.68802e-09 -1.6018e-09 0.0
-3.13678e-09 1.01026e-09 0.0
-4.39851e-09 4.11658e-09 0.0
-1.07011e-09 2.29029e-09 0.0
-6.22907e-09 1.20225e-08 0.0
-2.73675e-10 3.70775e-09 0.0
-2.56601e-10 6.14881e-09 0.0
5.08858e-09 1.49757e-09 0.0
1.36957e-08 2.48709e-09 0.0
-3.64561e-09 7.72759e-09 0.0
1.24382e-08 4.57972e-08 0.0
-1.01464e-08 6.66962e-09 0.0
-2.82839e-08 1.33285e-08 0.0
-2.88963e-08 1.23972e-08 0.0
-4.74241e-08 -3.14803e-09 0.0
-1.06013e-08 6.305e-10 0.0
-8.93108e-09 -4.05362e-09 0.0
-5.90144e-08 -1.96366e-08 0.0
-1.48118e-08 -1.07947e-08 0.0
-2.49179e-08 -1.82074e-08 0.0
-1.43339e-08 -3.19159e-09 0.0
-1.78672e-08 1.12709e-08 0.0
-3.80895e-09 1.7602e-09 0.0
-9.7529e-09 3.37487e-09 0.0
-3.17351e-09 8.9829e-10 0.0
-6.12685e-09 9.44727e-10 0.0
-2.55044e-09 -2.77929e-10 0.0
-6.37286e-09 -7.74108e-10 0.0
-1.10007e-09 -8.15361e-10 0.0
-6.03351e-09 -3.39431e-09 0.0
-1.3184e-09 -2.19509e-09 0.0
-7.33742e-10 -2.37821e-09 0.0
-5.86561e-10 -4.36162e-09 0.0
-4.37929e-10 -6.78254e-09 0.0
-5.76198e-10 -3.78159e-09 0.0
-8.45634e-10 -5.87366e-09 0.0
VECTORS omega float
-0.0399942 -0.272944 0.0420033
0.133932 0.110752 -0.0388743
-0.0123577 -0.0543604 -0.00501852
-0.064109 -0.11651 0.000930875
0.00340384 0.226925 0.0250396
0.0810207 0.121353 0.0308526
0.00378857 -0.211597 0.0126135
-0.198423 -0.0264265 0.0202958
0.143952 0.0374452 0.0222794
0.00490401 0.219693 0.00188863
-0.00136795 -0.211033 0.0179796
-0.0925894 0.0534158 0.00684779
0.0965635 -0.053711 0.0520161
-0.00202821 0.224907 0.0152079
-0.00133596 -0.20071 0.0137593
0.0509149 -0.051 0.0989218
0.00745472 0.234952 -0.0249187
0.00179317 -0.0391846 -0.0142747
0.0410092 -0.0998782 0.0981906
-0.00577344 0.0370505 0.00769701
0.0290856 -0.0184766 0.0437342
-0.0209435 0.0204963 0.0245735
-0.000463599 -0.0475128 0.01789
-0.00519488 0.0419985 0.024898
0.0314189 -0.0214975 0.0142856
-0.0041227 -0.0466682 0.0104483
0.00151254 0.0256258 -0.00146558
-0.00940476 0.0571746 0.0310134
-0.00563433 -0.0286263 0.0680685
0.00599704 -0.0494218 -0.00999692
-0.123618 -0.276238 0.0373055
0.00236796 0.0560978 0.0266609
-0.246621 0.251506 0.125736
0.305034 -0.0460018 -0.0446001
0.0794297 -0.0258719 0.112601
-0.0110804 0.0591526 0.00298219
-0.00629106 -0.0636912 0.00531556
0.0789825 -0.125857 0.138856
-0.0433035 0.0196258 0.111805
0.00336107 0.0668388 0.000161732
-0.177094 1.21703 0.0836849
-0.389261 -0.283094 -0.0200649
0.105445 0.101573 0.0404355
-0.0755038 -0.118009 0.0440828
-0.123012 -0.113612 0.0105985
0.0982309 0.124426 0.0106527
-0.118566 0.0683635 0.0707384
0.132506 -0.0980351 0.0061784
-0.000937464 -0.0890939 0.100625
-0.0633803 0.0870576 0.0241306
0.148836 -0.0278577 -0.017144
-0.069412 0.0789024 0.0470891
-0.0982881 0.00499 0.0338794
0.0650554 -0.0676975 -0.0106796
-0.0778526 0.0624622 0.0183287
0.0740712 0.102163 0.0339243
-0.0476343 -0.0866131 -0.000869977
-0.00447821 0.00759837 0.00442435
-0.0506135 0.0962148 -0.0258513
0.039282 -0.00912706 0.0113202
-0.0056292 -0.0834558 0.0220173
-0.0257117 0.011736 1.26539e-05
-0.0122453 0.0816871 0.0317988
0.0501722 -0.0128937 0.00251912
0.00355344 -0.0881804 0.0609294
0.0213624 0.0163765 -0.00303741
-0.00297071 -0.0425909 0.0875416
-0.0140789 -0.00559791 0.0156098
0.00613579 0.0219833 0.0505087
0.0125261 0.00535632 0.0180031
-0.0331212 -0.00996648 -0.00617726
0.0125114 -0.012185 0.0492334
0.0182593 0.0123423 0.0674876
-0.0134205 0.0164284 -0.0524334
0.188796 -0.326334 0.0159617
-0.0861275 -0.046882 -0.0191049
-0.0703211 0.290065 -0.000678537
0.17999 -0.197903 -3.55484e-05
0.0642364 -0.303973 0.00196181
-0.112632 0.185595 0.0144375
-0.116297 0.308989 -0.0384936
-0.254318 0.037404 2.39187e-05
0.335796 0.0849326 0.0682017
0.311903 -0.0455848 0.0709258
-0.256043 -0.0827685 0.000458865