# vtk DataFile Version 2.0
Generated by lpp.py
ASCII
DATASET POLYDATA
POINTS 400 float
0.00132771 0.000444208 3.36586e-05
0.000913622 0.00128485 -1.66342e-05
0.000242638 0.000443389 -3.64628e-05
3.08571e-07 0.00131805 4.93031e-05
0.00183627 0.00127908 5.09221e-06
0.00226897 0.000435885 -1.24497e-05
0.00274245 0.00128797 4.63423e-05
0.00324787 0.000515675 4.67087e-05
0.00374643 0.00129118 -1.5404e-05
0.00460738 0.00119539 -2.0603e-05
0.00417389 0.000417263 3.04549e-05
0.0051174 0.000469622 4.04467e-05
0.00567169 0.00130807 -2.65834e-05
0.00664393 0.00128887 -2.02466e-06
0.00602289 0.000418495 -1.20537e-05
0.00693223 0.00044469 3.91278e-05
0.0082461 0.00117592 -1.82355e-06
0.00779487 0.000364727 3.24564e-05
0.00876681 0.000397618 -3.28708e-05
0.00930627 0.00138597 3.24568e-05
0.00975816 0.000490901 -2.76781e-05
0.0103893 0.00131229 -4.92787e-05
0.0113813 0.00139184 -4.32784e-06
0.0107661 0.000444 -3.96086e-06
0.0117814 0.000485291 -1.32742e-05
0.0124088 0.00132879 1.95463e-05
0.0127826 0.000442251 1.3181e-05
0.0134362 0.00122566 3.75182e-05
0.0136151 0.000329447 1.89547e-05
0.0143558 0.00161886 1.99029e-05
0.0143664 0.000726753 -4.71808e-05
0.0156498 0.00128511 1.72248e-05
0.0152288 0.000426504 3.7231e-06
0.0165528 0.00131699 3.54547e-05
0.0161591 0.000503443 -4.85386e-05
0.0177983 0.00133133 -3.92382e-05
0.0171619 0.00053889 -3.8784e-05
0.0182416 0.000485988 3.096e-05
0.0189223 0.00128036 6.72355e-06
0.0192498 0.000430266 -3.72737e-05
0.000912398 0.00230569 5.14548e-06
0.000389376 0.00315978 -4.9345e-05
0.00207266 0.00294826 -3.17454e-05
0.00232671 0.00212056 -1.41959e-06
0.00292953 0.00285116 3.50109e-05
0.00325922 0.00201917 -3.46654e-05
0.00387054 0.00297738 -3.02218e-05
0.00413127 0.00209018 3.70504e-05
0.0049881 0.00300292 3.07542e-05
0.00497853 0.00196029 -2.23732e-05
0.00564818 0.00243801 -2.11247e-06
0.00624033 0.00307346 -3.67063e-05
0.0064268 0.00213314 3.11799e-05
0.00699376 0.00270938 -2.75116e-05
0.00732052 0.00190994 4.80419e-05
0.00773063 0.00291271 1.77683e-05
0.00828981 0.00219835 -3.97226e-05
0.00876839 0.00311846 4.55657e-05
0.00925096 0.00230715 1.80717e-05
0.00980837 0.00312822 -3.93388e-05
0.0101392 0.0022241 2.40231e-05
0.0107423 0.00309849 2.716e-05
0.0110996 0.00228226 -4.78087e-05
0.0116635 0.00309683 -4.25165e-05
0.0120621 0.00222617 -4.01526e-05
0.0126312 0.00312679 2.94528e-05
0.0131102 0.00223021 4.21294e-05
0.0136592 0.00314464 2.4953e-06
0.0141713 0.00242036 2.35941e-05
0.0146361 0.00314137 -2.89305e-05
0.0150848 0.00224262 3.21045e-05
0.0156205 0.00308619 2.08022e-05
0.016009 0.00209016 1.69816e-05
0.0165077 0.00284219 -1.31875e-05
0.0169324 0.00207788 -2.13541e-05
0.0173621 0.00302252 -2.48084e-05
0.0178685 0.00224469 7.17441e-06
0.0184482 0.00302956 -3.11061e-05
0.0188663 0.00220973 -6.697e-06
0.0194383 0.00303998 1.88296e-05
0.0198567 0.00217948 2.40593e-05
0.0013242 0.00346747 4.11056e-07
0.00154963 0.00438121 -3.43082e-05
0.000525888 0.00405668 4.11872e-05
0.00225996 0.00383396 4.14547e-05
0.00263568 0.00468328 2.79416e-05
0.00314352 0.00368851 -1.57031e-06
0.00360809 0.00470095 5.32063e-06
0.00402648 0.0039163 -2.6529e-06
0.00459434 0.00494713 -3.58607e-05
0.00500352 0.0039725 -2.13321e-05
0.00567003 0.00479156 -4.97251e-05
0.00597867 0.0039042 -2.41619e-05
0.00668313 0.00459877 -2.57589e-05
0.0070265 0.00365591 -4.22335e-05
0.00775226 0.00462575 4.30556e-05
0.00796344 0.00368224 4.42331e-05
0.00878011 0.00405908 -4.39636e-05
0.00980426 0.00486867 4.93343e-05
0.00961124 0.00400008 4.05756e-05
0.00871493 0.00490613 -1.72291e-05
0.0104262 0.00387992 -3.72271e-05
0.0107789 0.00466946 4.50596e-05
0.0112858 0.00394163 1.35023e-05
0.0119423 0.0047588 3.81834e-05
0.0121458 0.00389547 3.14585e-06
0.0129125 0.00493045 -2.4127e-05
0.0131364 0.0039963 1.0814e-05
0.0137725 0.00483829 -4.51984e-05
0.0141931 0.00402782 1.00341e-06
0.014717 0.00489063 6.87793e-06
0.0151618 0.00395734 1.87838e-05
0.0160881 0.00415456 4.33922e-05
0.0167858 0.00468952 2.18197e-05
0.0170376 0.00386933 -2.12721e-05
0.0176698 0.00460926 6.56493e-06
0.017969 0.00377821 9.36883e-06
0.0187048 0.00453971 3.03201e-05
0.0194156 0.00392643 1.43967e-05
0.0197603 0.00479078 -2.66714e-05
0.000801936 0.00500096 1.15215e-05
0.00120855 0.00595178 1.46596e-05
0.000337925 0.00650322 -3.99128e-05
9.60705e-05 0.00571778 -3.26099e-05
0.00182318 0.00521839 -7.07934e-06
0.00214535 0.00645971 -2.06108e-05
0.00264156 0.00563284 3.54227e-05
0.00314034 0.0064116 -2.96496e-05
0.00359472 0.0056289 1.90715e-05
0.00445412 0.00591253 1.72497e-05
0.00536759 0.00576122 2.50127e-05
0.00596313 0.006502 -4.27825e-05
0.00630242 0.0055345 2.43943e-05
0.00680642 0.00637474 -3.07296e-05
0.00721311 0.00549562 -2.4969e-05
0.00771381 0.006335 1.47771e-05
0.00818648 0.00555892 -2.62417e-05
0.00864863 0.00633078 -3.20614e-05
0.00926632 0.00565847 -4.70071e-05
0.0101257 0.00574384 4.476e-05
0.0109404 0.00555132 -5.06646e-06
0.0113959 0.00651288 -4.22073e-05
0.0117678 0.00566978 2.60985e-05
0.0123467 0.00640734 1.83575e-05
0.0125302 0.00560024 -2.28987e-05
0.013227 0.00609477 2.90979e-05
0.0141661 0.00577221 4.28851e-05
0.0151892 0.00589408 -1.46308e-05
0.0156876 0.00502128 -7.56683e-06
0.016067 0.00623874 -4.83823e-05
0.0165254 0.00551899 2.89194e-05
0.0170046 0.00631982 3.21564e-05
0.0173272 0.0053766 -4.85919e-05
0.0180882 0.00628292 -1.12464e-05
0.0181514 0.00535642 3.12852e-05
0.0193038 0.00636156 2.46256e-05
0.0190666 0.00549246 -4.44854e-05
0.00128375 0.00681534 -2.73404e-05
0.00116157 0.00795963 -3.38667e-05
0.000620231 0.00726038 -4.2113e-05
0.000130073 0.00807643 1.49646e-05
0.00192283 0.00742623 7.74856e-06
0.00207594 0.00829927 5.5329e-07
0.00285331 0.00725657 3.67542e-05
0.00294855 0.00820018 1.2865e-05
0.00376619 0.00772319 -4.70278e-05
0.00401564 0.00673755 -1.13161e-05
0.00474065 0.00768279 1.72877e-05
0.0050713 0.00677438 -4.33679e-05
0.0057066 0.00765942 7.98975e-06
0.00648202 0.00722425 -4.89198e-05
0.00706068 0.00808595 -1.8846e-05
0.00737898 0.00719508 -2.80691e-05
0.00794241 0.00787481 -4.34141e-05
0.00825891 0.00712184 2.59556e-05
0.00886353 0.00784495 -3.81694e-05
0.00943208 0.00692066 -2.37608e-06
0.00985464 0.00782564 -1.57412e-05
0.0104205 0.00667318 -1.47472e-05
0.0107634 0.00823637 4.979e-05
0.0110355 0.0073591 2.22644e-05
0.0117418 0.00821275 -4.55597e-05
0.0120549 0.00730302 -4.5975e-05
0.0128745 0.00785385 4.23607e-05
0.0130369 0.0069944 4.20701e-05
0.0138678 0.00781722 -5.04024e-06
0.0139204 0.00680043 1.64328e-05
0.0148713 0.00792279 -1.6913e-05
0.0149239 0.00691262 -4.21217e-05
0.0158401 0.0081108 -3.94419e-05
0.0159323 0.00713254 -1.21974e-05
0.0167014 0.00770103 -3.70828e-05
0.0175064 0.00715125 -3.33274e-05
0.0181746 0.0080557 -3.83096e-05
0.0185232 0.0071745 -2.02095e-05
0.0191955 0.00778166 -4.84051e-05
0.0197752 0.00713002 -3.46879e-05
0.00162008 0.0091505 2.66777e-05
0.000823116 0.00875859 -3.96098e-06
0.000753893 0.00962914 -1.72888e-05
0.00234091 0.00997659 2.41907e-05
0.00260257 0.00906523 4.87165e-05
0.00325161 0.00972712 7.50784e-06
0.00349869 0.00889133 -7.08428e-06
0.00421324 0.00954445 6.12283e-06
0.00437785 0.00858044 1.74262e-06
0.00518883 0.00943741 -2.81666e-05
0.00537359 0.00853075 -1.04316e-05
0.00613576 0.00937656 9.49774e-06
0.00625403 0.00848861 -4.45245e-05
0.00696647 0.00902639 3.54547e-06
0.00742911 0.00986924 -2.7703e-05
0.00781072 0.00871366 -4.92713e-05
0.00822549 0.00951112 1.26179e-05
0.00873047 0.00878859 4.93873e-05
0.00912518 0.00970269 -4.18982e-05
0.00974107 0.00885951 -9.33208e-06
0.0106932 0.00929015 -3.72943e-05
0.0113994 0.00989475 1.32074e-05
0.011637 0.00908171 3.24679e-05
0.0123235 0.00976194 -1.82378e-05
0.0125748 0.00876278 4.17083e-05
0.0132404 0.00962638 2.0062e-05
0.013576 0.00880577 -3.30909e-05
0.0140624 0.00959996 -4.57402e-05
0.0145655 0.00882857 -3.07794e-05
0.0149392 0.00967062 4.85236e-05
0.0155151 0.00898107 -3.2558e-05
0.0158332 0.00994022 -4.73944e-05
0.016487 0.00883714 -2.5672e-05
0.0167256 0.00969305 -3.5681e-05
0.0173413 0.0083509 2.81917e-06
0.0174481 0.00923187 -4.5525e-06
0.0199783 0.00908491 -3.41589e-05
0.0183439 0.00993149 1.70983e-05
0.0183649 0.00898666 -3.29151e-05
0.0191717 0.00955474 4.46827e-05
0.0191704 0.00861104 -3.50995e-05
0.00163627 0.0115949 -2.75196e-05
0.00144843 0.010098 -3.628e-05
0.00103237 0.01086 -3.81409e-05
0.000125307 0.0110251 4.26166e-05
0.00194225 0.0107567 2.8646e-05
0.00258179 0.0113925 1.79805e-07
0.0029984 0.0105898 -3.0738e-05
0.00355618 0.0113159 1.32908e-05
0.00389423 0.0104448 3.19371e-06
0.00451956 0.0112755 -4.05009e-05
0.00491309 0.0103849 2.58338e-05
0.0054598 0.0112332 5.57899e-06
0.00583027 0.0102245 3.55182e-05
0.00636305 0.0110313 -2.60959e-05
0.00664529 0.0101973 1.90003e-05
0.00729385 0.0108282 2.40728e-05
0.00807789 0.0115375 -1.09524e-05
0.00825194 0.0105076 -2.41459e-05
0.0092348 0.0106618 1.14157e-05
0.00902595 0.0115586 -2.28614e-05
0.00999831 0.0100987 7.96265e-06
0.0100828 0.0110619 4.36203e-05
0.0108006 0.0104752 4.40746e-05
0.011003 0.0113646 4.26806e-05
0.0117465 0.0107248 1.59016e-05
0.0126775 0.0106166 -4.05226e-06
0.0131541 0.0112631 -3.49974e-05
0.0136037 0.0104329 -2.12959e-05
0.0139681 0.0112401 -3.47829e-05
0.0145196 0.0103615 -6.10015e-06
0.0148798 0.0112149 -4.9699e-05
0.0158429 0.0110015 -3.49785e-05
0.0166158 0.0105625 -3.04875e-05
0.0166587 0.0115683 2.14731e-05
0.0173508 0.0110699 4.23831e-06
0.0174851 0.0102044 1.54215e-05
0.018326 0.0109071 -4.02054e-05
0.0191097 0.01043 -1.5365e-05
0.019246 0.01131 -1.60515e-05
0.0199651 0.0101227 -4.17269e-05
0.00142383 0.012654 1.39627e-05
0.000717473 0.0118007 -9.96495e-06
0.000483502 0.0127298 2.195e-05
0.00229624 0.0123217 1.50647e-05
0.00297803 0.0130596 -2.83946e-05
0.0032208 0.0121449 2.84116e-05
0.00407593 0.0129438 -8.8818e-06
0.00409976 0.0120334 -1.71454e-05
0.00497746 0.0130881 4.3363e-05
0.0050731 0.0121528 3.19528e-05
0.00582603 0.012901 -3.24457e-07
0.00609498 0.01196 1.74786e-05
0.00668601 0.0126454 -2.9504e-05
0.00710851 0.0117938 2.61725e-05
0.00759797 0.0126994 -7.28073e-06
0.00858308 0.012419 2.21972e-05
0.0093233 0.0130116 3.4178e-05
0.00984837 0.0119909 -3.43726e-05
0.0101658 0.0129286 2.4284e-05
0.0107862 0.0122977 4.99362e-05
0.0111847 0.0131389 1.79808e-05
0.0119405 0.0117316 3.01021e-05
0.0121015 0.0128014 -4.81269e-05
0.0128504 0.0119917 3.49515e-06
0.0131537 0.0128315 8.09002e-06
0.0138001 0.012102 -1.27408e-05
0.0142923 0.0129713 1.51186e-05
0.0147589 0.0121961 -2.52694e-05
0.0155004 0.0127982 -2.24734e-05
0.0156201 0.0118902 -4.84058e-07
0.0163563 0.0124314 2.73575e-05
0.0171708 0.0123296 2.6071e-05
0.0172664 0.013197 -3.7354e-05
0.0179214 0.0118429 -4.54593e-05
0.0179961 0.0127925 -4.8395e-05
0.018737 0.0130942 7.82155e-06
0.018885 0.0121959 -1.47463e-05
0.0195777 0.0129237 -3.72359e-05
0.0198222 0.01205 -4.13942e-05
0.00113969 0.0135725 -4.1589e-05
0.0009884 0.0145442 -1.31753e-05
0.000207042 0.0136115 -1.17246e-06
0.00193817 0.0145661 -5.27218e-06
0.00204475 0.0133432 2.70269e-05
0.00270399 0.0140036 -4.69919e-05
0.0031106 0.0148444 2.49655e-05
0.00364188 0.0138002 2.96183e-05
0.00401848 0.0146145 1.43924e-05
0.004632 0.0139045 -3.62044e-05
0.00524785 0.0145399 2.52958e-05
0.00557419 0.0137731 -4.96651e-05
0.00610436 0.0145259 -1.66336e-06
0.00648404 0.0136453 -6.05535e-06
0.00702549 0.0145717 -2.79437e-05
0.00746845 0.0137016 1.57621e-06
0.00808524 0.0145648 -3.93501e-06
0.00841921 0.0134478 4.44824e-05
0.00915482 0.0140482 4.05064e-05
0.00979905 0.0147262 -8.94147e-06
0.00898941 0.0149819 -1.15952e-07
0.0101178 0.0138512 -3.1985e-05
0.0106394 0.014654 2.67646e-06
0.0110518 0.0139568 8.79731e-06
0.0115236 0.014691 -1.90989e-05
0.0118428 0.0137577 1.18363e-05
0.01236 0.0144658 -1.70971e-05
0.012725 0.0136431 2.04004e-05
0.013285 0.014382 -4.99115e-05
0.0136764 0.0135854 4.34762e-05
0.014223 0.0146396 2.36495e-05
0.0145219 0.0138164 1.50053e-05
0.0151695 0.0145937 -1.68329e-05
0.0154036 0.0136951 2.59986e-05
0.0161785 0.0144174 -4.8797e-05
0.016313 0.0133867 -2.94781e-05
0.0171882 0.0141678 -3.80464e-05
0.0180433 0.0146261 6.36771e-07
0.0181016 0.0136985 -4.54767e-05
0.0199862 0.0145336 -2.39016e-05
0.0189782 0.014542 -3.38088e-05
0.0193047 0.0137381 6.46138e-06
0.00147712 0.0153981 3.1619e-05
0.00107268 0.0162517 -3.75421e-05
0.000554898 0.0153937 1.65265e-05
0.000184175 0.0162431 3.22872e-05
0.00202748 0.0162627 -2.29225e-05
0.00240391 0.0154159 -4.48401e-05
0.00305425 0.0161904 -1.88293e-05
0.00378638 0.0155207 5.22691e-06
0.00403542 0.0163413 -2.84806e-06
0.00468642 0.0152442 3.75063e-05
0.00495685 0.0161968 -2.57249e-06
0.00562014 0.0153348 -3.31627e-05
0.00597829 0.0162178 4.29286e-05
0.00660106 0.0154125 3.83299e-05
0.00696707 0.0162872 8.05502e-06
0.00752101 0.0153686 -1.60873e-07
0.00784607 0.0162827 4.44584e-05
0.00843551 0.0156743 1.77529e-05
0.00924129 0.0160937 1.78253e-05
0.00998074 0.0155486 1.34032e-05
0.0100684 0.0163675 -1.78006e-05
0.0108228 0.0163491 3.69213e-05
0.0109854 0.0154962 -2.36735e-05
0.0116786 0.0162678 -3.81553e-05
0.0120673 0.0154057 -3.46021e-05
0.0126767 0.016218 4.68532e-05
0.0130946 0.0153174 -4.47667e-06
0.0136689 0.0163159 -3.82493e-05
0.0140503 0.0155214 4.44816e-05
0.0145848 0.0162971 2.60965e-05
0.014966 0.015479 -1.42244e-05
0.0155031 0.0162594 -2.63927e-05
0.0159015 0.0153997 1.45032e-05
0.0163828 0.0162682 1.42827e-05
0.0169228 0.015225 8.61202e-06
0.0173033 0.0162317 1.04172e-05
0.017835 0.0154406 -1.6534e-05
0.0183073 0.0162462 1.14277e-05
0.0187062 0.0153946 3.47044e-05
0.019282 0.0162476 4.63278e-05
0.0196353 0.015417 -1.23126e-05
VERTICES 400 800
1 0
1 1
1 2
1 3
1 4
1 5
1 6
1 7
1 8
1 9
1 10
1 11
1 12
1 13
1 14
1 15
1 16
1 17
1 18
1 19
1 20
1 21
1 22
1 23
1 24
1 25
1 26
1 27
1 28
1 29
1 30
1 31
1 32
1 33
1 34
1 35
1 36
1 37
1 38
1 39
1 40
1 41
1 42
1 43
1 44
1 45
1 46
1 47
1 48
1 49
1 50
1 51
1 52
1 53
1 54
1 55
1 56
1 57
1 58
1 59
1 60
1 61
1 62
1 63
1 64
1 65
1 66
1 67
1 68
1 69
1 70
1 71
1 72
1 73
1 74
1 75
1 76
1 77
1 78
1 79
1 80
1 81
1 82
1 83
1 84
1 85
1 86
1 87
1 88
1 89
1 90
1 91
1 92
1 93
1 94
1 95
1 96
1 97
1 98
1 99
1 100
1 101
1 102
1 103
1 104
1 105
1 106
1 107
1 108
1 109
1 110
1 111
1 112
1 113
1 114
1 115
1 116
1 117
1 118
1 119
1 120
1 121
1 122
1 123
1 124
1 125
1 126
1 127
1 128
1 129
1 130
1 131
1 132
1 133
1 134
1 135
1 136
1 137
1 138
1 139
1 140
1 141
1 142
1 143
1 144
1 145
1 146
1 147
1 148
1 149
1 150
1 151
1 152
1 153
1 154
1 155
1 156
1 157
1 158
1 159
1 160
1 161
1 162
1 163
1 164
1 165
1 166
1 167
1 168
1 169
1 170
1 171
1 172
1 173
1 174
1 175
1 176
1 177
1 178
1 179
1 180
1 181
1 182
1 183
1 184
1 185
1 186
1 187
1 188
1 189
1 190
1 191
1 192
1 193
1 194
1 195
1 196
1 197
1 198
1 199
1 200
1 201
1 202
1 203
1 204
1 205
1 206
1 207
1 208
1 209
1 210
1 211
1 212
1 213
1 214
1 215
1 216
1 217
1 218
1 219
1 220
1 221
1 222
1 223
1 224
1 225
1 226
1 227
1 228
1 229
1 230
1 231
1 232
1 233
1 234
1 235
1 236
1 237
1 238
1 239
1 240
1 241
1 242
1 243
1 244
1 245
1 246
1 247
1 248
1 249
1 250
1 251
1 252
1 253
1 254
1 255
1 256
1 257
1 258
1 259
1 260
1 261
1 262
1 263
1 264
1 265
1 266
1 267
1 268
1 269
1 270
1 271
1 272
1 273
1 274
1 275
1 276
1 277
1 278
1 279
1 280
1 281
1 282
1 283
1 284
1 285
1 286
1 287
1 288
1 289
1 290
1 291
1 292
1 293
1 294
1 295
1 296
1 297
1 298
1 299
1 300
1 301
1 302
1 303
1 304
1 305
1 306
1 307
1 308
1 309
1 310
1 311
1 312
1 313
1 314
1 315
1 316
1 317
1 318
1 319
1 320
1 321
1 322
1 323
1 324
1 325
1 326
1 327
1 328
1 329
1 330
1 331
1 332
1 333
1 334
1 335
1 336
1 337
1 338
1 339
1 340
1 341
1 342
1 343
1 344
1 345
1 346
1 347
1 348
1 349
1 350
1 351
1 352
1 353
1 354
1 355
1 356
1 357
1 358
1 359
1 360
1 361
1 362
1 363
1 364
1 365
1 366
1 367
1 368
1 369
1 370
1 371
1 372
1 373
1 374
1 375
1 376
1 377
1 378
1 379
1 380
1 381
1 382
1 383
1 384
1 385
1 386
1 387
1 388
1 389
1 390
1 391
1 392
1 393
1 394
1 395
1 396
1 397
1 398
1 399
POINT_DATA 400
VECTORS f float
7.67398e-09 1.97503e-09 0.0
1.55231e-08 -4.12426e-09 0.0
-1.48461e-09 3.20542e-10 0.0
1.76933e-08 5.8102e-09 0.0
1.32721e-08 5.69096e-09 0.0
7.30016e-09 1.60764e-09 0.0
1.13942e-08 1.87427e-09 0.0
7.57537e-09 -2.49479e-10 0.0
7.8972e-09 -5.5177e-10 0.0
7.12831e-09 1.82694e-10 0.0
3.93745e-09 1.69827e-10 0.0
4.91487e-09 3.25374e-10 0.0
1.46353e-08 1.62889e-09 0.0
1.09131e-08 3.88385e-10 0.0
3.25509e-09 -3.66646e-11 0.0
3.3956e-09 -9.17381e-10 0.0
1.53683e-08 3.67292e-09 0.0
3.10349e-10 1.23581e-09 0.0
-5.11696e-11 -1.34969e-09 0.0
2.08971e-08 9.65638e-09 0.0
3.0461e-09 2.41752e-09 0.0
1.47725e-08 5.40669e-09 0.0
1.62416e-08 2.87998e-09 0.0
2.83391e-09 1.50085e-09 0.0
7.69834e-09 8.66759e-10 0.0
1.66296e-08 -1.72537e-09 0.0
5.44985e-09 -1.00645e-09 0.0
1.74667e-08 -3.44977e-09 0.0
3.53235e-09 -1.21538e-09 0.0
1.79056e-08 -4.79446e-09 0.0
9.71231e-09 -2.87611e-09 0.0
1.20133e-08 -1.11308e-09 0.0
6.58709e-09 -1.85449e-09 0.0
1.09092e-08 2.79518e-09 0.0
5.9348e-09 -7.3566e-10 0.0
1.5946e-08 5.0896e-10 0.0
5.68398e-09 3.82994e-09 0.0
3.26896e-09 -8.09337e-10 0.0
1.73396e-08 -2.2437e-10 0.0
5.57677e-10 -2.18461e-09 0.0
3.73734e-08 -5.90945e-09 0.0
3.99967e-08 5.35463e-09 0.0
2.72748e-08 6.97561e-09 0.0
2.53393e-08 6.8937e-09 0.0
2.12566e-08 3.24966e-09 0.0
1.85665e-08 9.85241e-10 0.0
4.10528e-08 2.66408e-09 0.0
1.70963e-08 -9.79424e-11 0.0
2.41514e-08 8.24361e-09 0.0
1.57196e-08 4.2697e-10 0.0
1.43781e-08 3.08493e-09 0.0
2.77209e-08 5.66912e-09 0.0
1.65324e-08 2.29022e-09 0.0
1.47817e-08 -2.75778e-10 0.0
2.07403e-08 -2.17889e-09 0.0
1.84709e-08 3.53443e-09 0.0
4.11517e-08 6.1766e-09 0.0
3.63651e-08 6.67092e-09 0.0
2.18165e-08 4.95234e-09 0.0
3.78487e-08 8.80132e-09 0.0
2.41595e-08 6.84281e-09 0.0
2.84318e-08 6.99405e-09 0.0
2.3999e-08 6.27896e-09 0.0
3.55738e-08 5.31388e-09 0.0
2.25958e-08 2.61427e-09 0.0
3.9105e-08 1.19105e-09 0.0
3.53547e-08 -2.97495e-09 0.0
4.16879e-08 -1.75063e-09 0.0
2.14994e-08 -1.72016e-09 0.0
3.74379e-08 -4.06528e-09 0.0
2.84411e-08 -7.1731e-09 0.0
4.36019e-08 -1.23095e-08 0.0
2.28544e-08 -6.76863e-09 0.0
2.9755e-08 -6.89613e-09 0.0
2.71886e-08 -2.15146e-09 0.0
3.03792e-08 3.23626e-10 0.0
4.42771e-08 -4.18835e-10 0.0
3.63912e-08 7.50372e-10 0.0
4.04247e-08 1.90744e-09 0.0
5.2397e-08 3.82934e-09 0.0
4.50763e-08 8.55314e-09 0.0
5.51022e-08 1.29071e-08 0.0
3.29017e-08 6.6384e-09 0.0
3.6215e-08 7.21543e-09 0.0
3.5698e-08 7.3725e-09 0.0
3.87394e-08 6.18754e-09 0.0
3.05542e-08 3.40242e-09 0.0
3.91298e-08 5.61255e-09 0.0
4.17016e-08 3.38641e-09 0.0
6.3337e-08 1.18934e-08 0.0
5.46752e-08 1.08188e-08 0.0
6.17782e-08 1.42391e-08 0.0
3.1857e-08 7.26487e-09 0.0
5.18782e-08 1.04365e-08 0.0
3.69676e-08 5.07332e-09 0.0
6.27861e-08 1.22188e-08 0.0
3.16139e-08 5.12406e-09 0.0
3.65614e-08 4.7856e-09 0.0
4.29628e-08 4.74158e-09 0.0
2.7255e-08 4.20417e-09 0.0
3.60378e-08 3.48323e-09 0.0
2.35664e-08 4.57736e-09 0.0
3.43822e-08 6.0256e-09 0.0
2.31569e-08 4.8644e-09 0.0
4.29267e-08 1.7425e-09 0.0
2.45301e-08 1.07594e-09 0.0
4.49162e-08 3.83986e-11 0.0
5.66641e-08 -5.1785e-10 0.0
3.49463e-08 -6.7531e-10 0.0
5.31438e-08 -2.73158e-09 0.0
5.12678e-08 -2.22159e-09 0.0
4.81754e-08 -6.01556e-09 0.0
4.52158e-08 -2.10399e-09 0.0
3.48813e-08 1.02923e-09 0.0
4.5149e-08 3.3042e-09 0.0
3.60809e-08 1.5709e-09 0.0
4.72951e-08 2.02173e-09 0.0
7.23296e-08 2.70442e-09 0.0
3.39779e-08 1.62404e-09 0.0
5.8304e-08 4.1702e-09 0.0
7.06519e-08 1.22957e-08 0.0
4.62716e-08 8.11238e-09 0.0
2.6709e-08 2.86084e-09 0.0
4.3241e-08 5.10873e-09 0.0
4.57686e-08 8.7789e-09 0.0
6.18105e-08 9.84055e-09 0.0
4.78675e-08 7.46417e-09 0.0
3.78297e-08 6.30676e-09 0.0
6.00536e-08 8.48311e-09 0.0
3.64373e-08 6.89081e-09 0.0
6.54855e-08 1.53596e-08 0.0
3.33441e-08 7.62492e-09 0.0
3.10365e-08 7.72634e-09 0.0
4.8284e-08 1.12728e-08 0.0
4.9967e-08 1.16553e-08 0.0
5.41337e-08 1.06171e-08 0.0
3.92979e-08 6.58016e-09 0.0
5.45551e-08 6.44805e-09 0.0
4.76499e-08 3.45681e-09 0.0
4.2567e-08 4.67225e-09 0.0
4.2992e-08 6.83681e-09 0.0
5.41643e-08 9.3177e-10 0.0
4.31353e-08 1.89572e-09 0.0
4.69102e-08 5.24764e-09 0.0
2.85027e-08 2.67669e-09 0.0
6.88747e-08 4.34991e-09 0.0
7.50888e-08 -4.11329e-09 0.0
6.06138e-08 -6.37512e-10 0.0
4.53925e-08 -2.27778e-09 0.0
4.81386e-08 6.46495e-10 0.0
4.55546e-08 -3.4755e-10 0.0
4.18992e-08 -6.37091e-09 0.0
3.11955e-08 7.60843e-10 0.0
6.85593e-08 3.34122e-09 0.0
4.61949e-08 2.39468e-09 0.0
4.49519e-08 1.37907e-09 0.0
4.60563e-08 1.73308e-09 0.0
3.31496e-08 4.86759e-09 0.0
5.92362e-08 8.10335e-09 0.0
3.22657e-08 3.80678e-09 0.0
6.52231e-08 7.70699e-09 0.0
4.83034e-08 7.52446e-09 0.0
3.69731e-08 5.66342e-09 0.0
6.14513e-08 1.03891e-08 0.0
4.3271e-08 7.35251e-09 0.0
5.64506e-08 1.04662e-08 0.0
5.48643e-08 9.43018e-09 0.0
5.08671e-08 1.21365e-08 0.0
7.78106e-08 1.87932e-08 0.0
5.78454e-08 1.48099e-08 0.0
5.02209e-08 1.16149e-08 0.0
6.36578e-08 1.62289e-08 0.0
4.39455e-08 9.48418e-09 0.0
2.96295e-08 6.17226e-09 0.0
3.85073e-08 7.05154e-09 0.0
6.17869e-08 1.1215e-08 0.0
6.79459e-08 8.42124e-09 0.0
5.32069e-08 7.02315e-09 0.0
6.77181e-08 8.11171e-09 0.0
6.78277e-08 2.85052e-09 0.0
3.28422e-08 1.37196e-09 0.0
5.47896e-08 3.08441e-10 0.0
6.28394e-08 7.24197e-10 0.0
4.4942e-08 1.12432e-09 0.0
1.70895e-08 -3.73296e-09 0.0
6.82705e-08 1.13835e-09 0.0
4.79113e-08 -3.86717e-09 0.0
4.84433e-08 1.20233e-09 0.0
7.38884e-08 3.58608e-10 0.0
5.35644e-08 1.86978e-09 0.0
5.277e-08 9.09922e-10 0.0
5.31255e-08 -2.29643e-10 0.0
5.96077e-08 1.70003e-10 0.0
3.89779e-08 3.2061e-09 0.0
5.92715e-08 5.12035e-09 0.0
4.08465e-08 4.42682e-09 0.0
4.68727e-08 5.21396e-09 0.0
5.75486e-08 8.21129e-09 0.0
2.68145e-08 3.5549e-09 0.0
4.37982e-08 5.94992e-09 0.0
5.02195e-08 7.47913e-09 0.0
5.2698e-08 8.5422e-09 0.0
3.59778e-08 6.77253e-09 0.0
3.76394e-08 7.49206e-09 0.0
5.40229e-08 1.26209e-08 0.0
7.78043e-08 1.79901e-08 0.0
4.32987e-08 1.18582e-08 0.0
5.69198e-08 1.49288e-08 0.0
4.97588e-08 1.45453e-08 0.0
3.03019e-08 8.56591e-09 0.0
4.51475e-08 1.24936e-08 0.0
5.63429e-08 1.82336e-08 0.0
3.91463e-08 9.4758e-09 0.0
4.52552e-08 1.08509e-08 0.0
4.92857e-08 9.66328e-09 0.0
5.6509e-08 8.88498e-09 0.0
7.73567e-08 9.48616e-09 0.0
6.209e-08 3.6282e-09 0.0
3.71265e-08 1.27606e-09 0.0
3.71325e-08 7.2497e-10 0.0
6.6328e-08 1.03329e-09 0.0
6.74314e-08 8.86356e-10 0.0
2.76617e-08 8.0706e-10 0.0
5.3566e-08 1.42758e-09 0.0
3.14592e-08 1.13112e-09 0.0
5.26705e-08 1.79837e-09 0.0
3.55214e-08 1.61429e-09 0.0
4.62739e-08 1.99215e-09 0.0
5.45137e-08 4.10919e-09 0.0
4.62714e-08 3.5957e-09 0.0
2.9022e-08 2.86436e-09 0.0
3.39888e-08 2.21803e-09 0.0
4.21135e-08 3.39508e-09 0.0
6.20129e-08 7.72596e-09 0.0
4.1385e-08 3.92671e-09 0.0
4.84242e-08 4.32993e-09 0.0
4.23545e-08 4.30702e-09 0.0
3.46494e-08 3.87553e-09 0.0
4.17553e-08 6.06395e-09 0.0
3.37884e-08 4.29833e-09 0.0
3.51265e-08 4.83763e-09 0.0
3.40541e-08 4.3052e-09 0.0
2.78798e-08 3.62181e-09 0.0
4.83901e-08 7.79764e-09 0.0
3.35e-08 5.9233e-09 0.0
3.53464e-08 7.68919e-09 0.0
6.2783e-08 1.4149e-08 0.0
4.12558e-08 1.11441e-08 0.0
7.18876e-08 2.01758e-08 0.0
3.76821e-08 1.26565e-08 0.0
4.23079e-08 1.30032e-08 0.0
4.44632e-08 1.55773e-08 0.0
3.29994e-08 1.06275e-08 0.0
4.61789e-08 1.75241e-08 0.0
4.08771e-08 1.0949e-08 0.0
6.05297e-08 1.69782e-08 0.0
4.80047e-08 7.41539e-09 0.0
3.95365e-08 6.75149e-09 0.0
4.22996e-08 5.12983e-09 0.0
4.67368e-08 4.85653e-09 0.0
3.64315e-08 2.02039e-09 0.0
5.06539e-08 1.88918e-09 0.0
5.1342e-08 1.51768e-09 0.0
3.46261e-08 1.08874e-09 0.0
2.78541e-08 1.58745e-09 0.0
5.52631e-08 2.73735e-09 0.0
2.36573e-08 2.08812e-09 0.0
3.37456e-08 1.99016e-09 0.0
4.87366e-08 4.71035e-09 0.0
3.86474e-08 4.3615e-09 0.0
4.02757e-08 3.857e-09 0.0
3.51944e-08 4.10898e-09 0.0
2.56311e-08 3.22837e-09 0.0
4.63134e-08 5.13377e-09 0.0
4.2322e-08 3.73519e-09 0.0
3.13312e-08 3.41692e-09 0.0
3.62943e-08 4.15532e-09 0.0
4.12459e-08 5.46805e-09 0.0
3.00548e-08 4.86972e-09 0.0
4.46818e-08 6.93921e-09 0.0
3.02773e-08 4.97201e-09 0.0
3.82539e-08 5.6148e-09 0.0
3.99703e-08 8.3434e-09 0.0
3.56189e-08 7.39519e-09 0.0
3.73891e-08 9.79128e-09 0.0
3.26858e-08 8.25872e-09 0.0
2.01248e-08 7.76084e-09 0.0
5.18087e-08 1.75506e-08 0.0
3.2228e-08 1.3851e-08 0.0
4.42451e-08 1.79427e-08 0.0
2.53478e-08 1.28168e-08 0.0
5.00916e-08 2.19772e-08 0.0
5.20956e-08 1.38423e-08 0.0
4.67931e-08 9.15196e-09 0.0
3.12498e-08 -2.98799e-09 0.0
4.05779e-08 5.81328e-09 0.0
2.36827e-08 -3.41975e-09 0.0
5.66088e-08 2.81158e-09 0.0
2.222e-08 -9.79616e-11 0.0
5.67925e-08 2.78433e-09 0.0
5.08386e-08 3.65885e-09 0.0
2.91561e-08 2.29296e-09 0.0
4.02773e-08 4.16428e-09 0.0
4.52918e-08 5.11022e-09 0.0
2.66436e-08 3.92357e-09 0.0
3.92751e-08 4.58875e-09 0.0
2.33781e-08 2.22041e-09 0.0
3.54141e-08 4.19721e-09 0.0
3.20559e-08 4.68507e-09 0.0
1.89306e-08 2.87577e-09 0.0
2.3088e-08 3.86771e-09 0.0
5.21231e-08 6.28795e-09 0.0
1.97318e-08 3.30169e-09 0.0
1.69861e-08 2.15762e-09 0.0
4.05964e-08 4.45834e-09 0.0
2.92619e-08 3.52126e-09 0.0
2.92865e-08 3.7676e-09 0.0
2.7926e-08 5.35556e-09 0.0
1.68261e-08 3.93944e-09 0.0
2.19943e-08 3.77195e-09 0.0
1.74362e-08 1.32502e-09 0.0
2.05955e-08 2.83586e-09 0.0
2.28265e-08 3.69526e-09 0.0
1.63969e-08 3.57154e-09 0.0
2.58473e-08 6.88991e-09 0.0
1.51382e-08 4.63952e-09 0.0
2.50517e-08 9.11242e-09 0.0
1.20254e-08 5.26362e-09 0.0
1.69569e-08 8.19675e-09 0.0
1.42369e-08 7.50484e-09 0.0
2.52099e-08 1.83448e-08 0.0
2.21248e-08 1.2462e-08 0.0
2.4714e-08 1.1811e-08 0.0
2.27192e-08 1.65359e-08 0.0
2.39163e-08 3.95189e-09 0.0
1.52416e-08 4.18943e-09 0.0
1.06757e-08 -1.58846e-09 0.0
1.73046e-08 8.9522e-09 0.0
2.86534e-08 -4.44657e-09 0.0
1.11465e-08 -1.60758e-09 0.0
1.44376e-08 -8.57758e-10 0.0
1.45117e-08 4.38363e-10 0.0
2.20895e-08 1.33515e-09 0.0
1.40588e-08 1.17225e-09 0.0
2.28562e-08 1.83751e-09 0.0
2.61675e-08 2.57061e-09 0.0
1.95143e-08 2.27396e-09 0.0
1.73269e-08 2.78451e-09 0.0
1.78836e-08 3.18906e-09 0.0
1.93557e-08 3.09183e-09 0.0
2.26032e-08 2.98662e-09 0.0
2.38369e-08 3.38179e-09 0.0
3.47931e-08 5.82081e-09 0.0
2.35111e-08 3.39292e-09 0.0
1.47293e-08 2.12787e-09 0.0
2.3531e-08 4.01636e-09 0.0
2.4029e-08 3.49146e-09 0.0
1.8943e-08 1.69188e-09 0.0
1.81307e-08 1.87555e-09 0.0
8.74276e-09 1.15476e-09 0.0
3.96033e-09 -4.88542e-11 0.0
1.1076e-08 2.97657e-09 0.0
4.04553e-09 7.27503e-10 0.0
4.75725e-09 -6.44422e-11 0.0
1.06953e-08 1.45359e-09 0.0
6.44078e-09 2.07788e-09 0.0
1.01015e-08 3.22992e-09 0.0
3.16456e-09 1.9936e-09 0.0
1.35939e-08 6.83512e-09 0.0
7.68741e-09 3.3064e-09 0.0
1.2027e-08 5.44702e-09 0.0
8.40436e-09 3.18268e-09 0.0
1.25581e-08 5.70358e-09 0.0
3.60969e-09 3.27872e-09 0.0
1.3384e-08 1.65073e-08 0.0
1.43156e-09 -2.29416e-10 0.0
1.16886e-08 6.81921e-09 0.0
8.82761e-09 7.70474e-09 0.0
7.96615e-09 -1.71321e-09 0.0
2.50572e-09 -6.20818e-10 0.0
1.65816e-09 -1.63819e-10 0.0
1.19997e-08 -4.98122e-10 0.0
3.09097e-09 1.41383e-10 0.0
6.72508e-09 1.15688e-09 0.0
4.68979e-09 -8.41275e-10 0.0
1.49457e-08 -2.78787e-10 0.0
3.09648e-09 -2.92439e-10 0.0
9.6735e-09 1.50751e-09 0.0
4.37041e-09 6.77147e-10 0.0
9.29986e-09 1.4628e-09 0.0
4.69234e-09 1.78608e-09 0.0
1.27657e-08 2.8541e-09 0.0
2.52799e-09 3.61095e-10 0.0
1.89903e-08 2.60324e-09 0.0
5.83962e-09 -3.89296e-10 0.0
6.46395e-09 2.16259e-10 0.0
6.60169e-09 4.52388e-10 0.0
1.10585e-08 1.2425e-09 0.0
5.02695e-09 7.1648e-10 0.0
8.06489e-09 1.20944e-09 0.0
VECTORS omega float
-0.00687577 0.0583719 0.0549425
-0.0490026 0.0576573 -0.0717785
0.000389698 -0.00534589 -0.0147282
0.0183676 -0.0611104 0.215828
0.0632333 -0.0605985 0.013086
0.00101671 -0.0495744 0.0238494
-0.030788 0.0583568 0.0421856
-0.0134087 0.0385592 0.0144751
0.0424287 -0.00602895 0.0253129
-0.0282541 -0.00116886 0.0305275
0.000323144 -0.0404314 0.0123759
0.00429623 0.0402263 0.0123971
0.0266225 0.0430014 0.0102325
0.0108822 -0.0575117 0.0563479
-0.0124801 -0.0515034 0.022794
-0.00262763 0.0495322 0.0175468
-0.0170781 0.024473 0.125214
0.00155046 -0.0617289 -0.0343709
-0.000249872 -0.000694185 -0.0215067
0.048886 -0.0939638 0.122088
-0.00244585 0.000520257 0.010587
0.00520087 -0.00238923 0.0589683
0.0186572 0.00251724 0.02132
-0.00119433 -0.00244335 0.019495
-0.00731633 0.000357791 0.0332942
0.00712638 -0.00302657 0.031747
-0.000797235 -0.00548855 0.0184488
-0.00108048 0.00417008 0.00633302
-0.00185868 0.00962409 0.043866
-0.0059041 -0.0130132 0.0840704
0.00487332 -0.00826248 -0.0103191
-0.0419828 -0.0542857 0.0423597
0.0039249 0.00653561 0.0358671
-0.0441037 0.0545967 0.16004
0.0676081 -0.00360986 -0.0543469
0.0157049 -0.0162044 0.149338
-0.00643473 0.00739781 0.00506495
0.000322008 -0.00693353 0.00754683
-0.00899913 0.00338053 0.169712
0.00142669 0.00670091 0.00210279
0.0441563 -0.0150504 0.172248
-0.0146345 -0.0317846 -0.0282851
-0.00237774 0.138795 0.0600706
-0.0543458 0.0871838 0.0553451
0.0640882 -0.147145 0.0140308
0.0158373 -0.0837279 0.0236222
-0.0521463 0.121471 0.0912418
-0.00687013 0.0815266 0.0042702
0.0425953 0.0978066 0.148307
-0.0138475 -0.0737554 0.0264042
-0.134467 -0.031261 -0.0324721
0.004778 -0.0840868 0.0773639
-0.0195051 0.0855134 0.0433909
0.151043 0.0339705 -0.0193056
-0.132524 -0.0378143 0.0180495
-0.0227943 -0.000703233 0.0336219
0.0180978 -0.00264059 0.00407825
0.00662569 0.0597202 0.00948005
-0.0501008 0.00516088 -0.0276105
0.0227895 -0.042976 0.0132867
-0.00537203 -0.00425821 0.0211374
0.0161381 0.0403303 -0.00319268
-0.032394 0.00625479 0.0410877
0.0274597 -0.0304314 0.0178326
-0.00628252 -0.0036615 0.0291537
-0.0123486 0.0254697 0.00750794
-0.00353706 0.00682294 0.07783
0.00545498 -0.0125082 0.016497
0.00981817 -0.00492447 0.0598962
-0.00874707 0.00557692 0.0214876
-0.0117887 0.00209431 -0.0124169
0.0132291 -0.000941091 0.0622224
0.0221085 -0.00395499 0.0971282
-0.0327463 0.00272155 -0.069209
0.0505687 -0.0244765 0.0128702
0.00674876 -0.0101414 -0.0253692
-0.0146978 0.0238803 0.00409832
0.0171315 -0.0275355 -0.00394008
0.0105189 -0.0252733 -0.00632134
-0.0090159 0.024536 0.0104965
-0.013053 0.0250327 -0.0252521
-0.13849 -0.0212242 0.00050698
0.142832 -0.109084 0.0708314
0.0293161 0.122328 0.0796628
0.0203463 -0.0206947 0.00631929
-0.0573933 -0.101677 0.0976093
-0.0903463 0.0318363 0.0485141
-0.0157106 -0.0801482 0.0798626
0.0731765 -0.031301 0.000479266
-0.00491352 0.062112 0.0143971
-0.0356708 0.0290332 0.000959903
0.00773376 -0.0634021 0.0254067
0.0252029 -0.0216549 0.0460819
0.0322296 0.0573887 0.0058322
-0.0682432 0.0210263 0.0147138
0.00185049 -0.0454898 0.0388225